/*--------------------------------*- C++ -*----------------------------------*\
| =========                 |                                                 |
| \\      /  F ield         | OpenFOAM: The Open Source CFD Toolbox           |
|  \\    /   O peration     | Version:  2.4.0                                 |
|   \\  /    A nd           | Web:      www.OpenFOAM.org                      |
|    \\/     M anipulation  |                                                 |
\*---------------------------------------------------------------------------*/
FoamFile
{
    version     2.0;
    format      ascii;
    class       volScalarField;
    location    "0";
    object      alpha;
}
// * * * * * * * * * * * * * * * * * * * * * * * * * * * * * * * * * * * * * //

dimensions      [0 0 0 0 0 0 0];

internalField   nonuniform List<scalar> 
438
(
0.61
0.61
0.61
0.61
0.61
0.61
0.61
0.61
0.61
0.61
0.61
0.61
0.61
0.61
0.61
0.61
0.61
0.61
0.61
0.61
0.61
0.61
0.61
0.61
0.61
0.61
0.61
0.61
0.61
0.61
0.61
0.61
0.61
0.61
0.61
0.61
0.61
0.61
0.61
0.61
0.61
0.61
0.61
0.61
0.61
0.61
0.61
0.61
0.61
0.61
0.61
0.61
0.61
0.61
0.61
0.61
0.61
0.61
0.61
0.61
0.61
0.61
0.61
0.61
0.61
0.61
0.61
0.61
0.61
0.61
0.61
0.61
0.61
0.61
0.61
0.61
0.61
0.61
0.61
0.61
0.61
0.61
0.61
0.61
0.61
0.61
0.61
0.61
0.61
0.61
0.61
0.61
0.609999
0.609999
0.609999
0.609999
0.609998
0.609998
0.609997
0.609997
0.609996
0.609995
0.609993
0.609991
0.609989
0.609986
0.609982
0.609977
0.609971
0.609963
0.609953
0.609941
0.609925
0.609904
0.609878
0.609845
0.609803
0.60975
0.609682
0.609596
0.609487
0.609348
0.609171
0.608947
0.608662
0.6083
0.60784
0.607257
0.606518
0.60558
0.604392
0.602888
0.600988
0.598589
0.595567
0.591769
0.58701
0.58107
0.57369
0.564575
0.553396
0.539809
0.523471
0.504076
0.481401
0.455361
0.426064
0.39385
0.359315
0.323278
0.286722
0.250685
0.21615
0.183936
0.154639
0.128599
0.105924
0.0865291
0.0701907
0.0566037
0.0454254
0.0363099
0.0289298
0.0229896
0.0182309
0.014433
0.011411
0.00901216
0.00711163
0.00560816
0.00442021
0.00348244
0.00274273
0.00215958
0.00170007
0.00133812
0.00105309
0.000828697
0.000652065
0.00051305
0.000403652
0.000317568
0.000249836
0.000196545
0.000154618
0.000121634
9.56846e-05
7.52707e-05
5.92116e-05
4.65784e-05
3.66405e-05
2.88228e-05
2.26731e-05
1.78354e-05
1.40299e-05
1.10364e-05
8.68155e-06
6.82917e-06
5.37203e-06
4.22579e-06
3.32413e-06
2.61486e-06
2.05692e-06
1.61803e-06
1.27279e-06
1.00121e-06
7.87583e-07
6.19535e-07
4.87343e-07
3.83358e-07
3.0156e-07
2.37216e-07
1.866e-07
1.46785e-07
1.15465e-07
9.08282e-08
7.1448e-08
5.6203e-08
4.42108e-08
3.47775e-08
2.73569e-08
2.15197e-08
1.6928e-08
1.3316e-08
1.04748e-08
8.23975e-09
6.48161e-09
5.09862e-09
4.01071e-09
3.15494e-09
2.48176e-09
1.95222e-09
1.53567e-09
1.208e-09
9.5025e-10
7.47493e-10
5.87999e-10
4.62536e-10
3.63844e-10
2.8621e-10
2.25141e-10
1.77102e-10
1.39313e-10
1.09588e-10
8.62047e-11
6.7811e-11
5.33421e-11
4.19603e-11
3.30072e-11
2.59643e-11
2.04243e-11
1.60663e-11
1.26382e-11
9.94155e-12
7.82032e-12
6.15167e-12
4.83909e-12
3.80654e-12
2.99433e-12
2.35543e-12
1.85285e-12
1.45751e-12
1.14653e-12
9.01875e-13
7.09439e-13
5.58076e-13
4.38984e-13
3.45323e-13
2.71639e-13
2.13668e-13
1.6809e-13
1.3223e-13
1.04023e-13
8.18101e-14
6.43713e-14
5.06234e-14
3.98215e-14
3.13222e-14
2.46514e-14
1.9369e-14
1.52378e-14
1.19871e-14
9.44744e-15
7.41573e-15
5.82423e-15
4.60521e-15
3.62321e-15
2.84439e-15
2.23488e-15
1.76081e-15
1.38833e-15
1.08358e-15
8.46545e-16
6.77236e-16
5.41789e-16
4.06342e-16
3.38618e-16
2.70894e-16
2.03171e-16
1.69309e-16
1.35447e-16
1.01585e-16
6.77236e-17
6.77236e-17
3.38618e-17
3.38618e-17
3.38618e-17
3.38618e-17
0
0
0
0
0
0
0
0
0
0
0
0
0
0
0
0
0
0
0
0
0
0
0
0
0
0
0
0
0
0
0
0
0
0
0
0
0
0
0
0
0
0
0
0
0
0
0
0
0
0
0
0
0
0
0
0
0
0
0
0
0
0
0
0
0
0
0
0
0
0
0
0
0
0
0
0
0
0
0
0
0
0
0
0
0
0
0
0
0
0
0
0
0
0
0
0
0
0
0
0
0
0
0
0
0
0
0
0
0
0
0
0
0
0
0
0
0
0
0
0
0
0
0
0
0
0
0
0
0
0
)
;

boundaryField
{
    inlet
    {
        type            cyclic;
    }
    outlet
    {
        type            cyclic;
    }
    top
    {
        type            symmetryPlane;
    }
    bottom
    {
        type            zeroGradient;
    }
    frontAndBackPlanes
    {
        type            empty;
    }
}


// ************************************************************************* //
