/*--------------------------------*- C++ -*----------------------------------*\
| =========                 |                                                 |
| \\      /  F ield         | OpenFOAM: The Open Source CFD Toolbox           |
|  \\    /   O peration     | Version:  2.4.0                                 |
|   \\  /    A nd           | Web:      www.OpenFOAM.org                      |
|    \\/     M anipulation  |                                                 |
\*---------------------------------------------------------------------------*/
FoamFile
{
    version     2.0;
    format      ascii;
    class       volScalarField;
    location    "0";
    object      ccy;
}
// * * * * * * * * * * * * * * * * * * * * * * * * * * * * * * * * * * * * * //

dimensions      [0 1 0 0 0 0 0];

internalField   nonuniform List<scalar> 
438
(
0.00025
0.00075
0.00125
0.00175
0.00225
0.00275
0.00325
0.00375
0.00425
0.00475
0.00525
0.00575
0.00625
0.00675
0.00725
0.00775
0.00825
0.00875
0.00925
0.00975
0.01025
0.01075
0.01125
0.01175
0.01225
0.01275
0.01325
0.01375
0.01425
0.01475
0.01525
0.01575
0.01625
0.01675
0.01725
0.01775
0.01825
0.01875
0.01925
0.01975
0.02025
0.02075
0.02125
0.02175
0.02225
0.02275
0.02325
0.02375
0.02425
0.02475
0.02525
0.02575
0.02625
0.02675
0.02725
0.02775
0.02825
0.02875
0.02925
0.02975
0.03025
0.03075
0.03125
0.03175
0.03225
0.03275
0.03325
0.03375
0.03425
0.03475
0.03525
0.03575
0.03625
0.03675
0.03725
0.03775
0.03825
0.03875
0.03925
0.03975
0.04025
0.04075
0.04125
0.04175
0.04225
0.04275
0.04325
0.04375
0.04425
0.04475
0.04525
0.04575
0.04625
0.04675
0.04725
0.04775
0.04825
0.04875
0.04925
0.04975
0.05025
0.05075
0.05125
0.05175
0.05225
0.05275
0.05325
0.05375
0.05425
0.05475
0.05525
0.05575
0.05625
0.05675
0.05725
0.05775
0.05825
0.05875
0.05925
0.05975
0.06025
0.06075
0.06125
0.06175
0.06225
0.06275
0.06325
0.06375
0.06425
0.06475
0.06525
0.06575
0.06625
0.06675
0.06725
0.06775
0.06825
0.06875
0.06925
0.06975
0.07025
0.07075
0.07125
0.07175
0.07225
0.07275
0.07325
0.07375
0.07425
0.07475
0.07525
0.07575
0.07625
0.07675
0.07725
0.07775
0.07825
0.07875
0.07925
0.07975
0.08025
0.08075
0.08125
0.08175
0.08225
0.08275
0.08325
0.08375
0.08425
0.08475
0.08525
0.08575
0.08625
0.08675
0.08725
0.08775
0.08825
0.08875
0.08925
0.08975
0.09025
0.09075
0.09125
0.09175
0.09225
0.09275
0.09325
0.09375
0.09425
0.09475
0.09525
0.09575
0.09625
0.09675
0.09725
0.09775
0.09825
0.09875
0.09925
0.09975
0.10025
0.10075
0.10125
0.10175
0.10225
0.10275
0.10325
0.10375
0.10425
0.10475
0.10525
0.10575
0.10625
0.10675
0.10725
0.10775
0.10825
0.10875
0.10925
0.10975
0.11025
0.11075
0.11125
0.11175
0.11225
0.11275
0.11325
0.11375
0.11425
0.11475
0.11525
0.11575
0.11625
0.11675
0.11725
0.11775
0.11825
0.11875
0.11925
0.11975
0.12025
0.12075
0.12125
0.12175
0.12225
0.12275
0.12325
0.12375
0.12425
0.12475
0.12525
0.12575
0.12625
0.12675
0.12725
0.12775
0.12825
0.12875
0.12925
0.12975
0.13025
0.13075
0.13125
0.13175
0.13225
0.13275
0.13325
0.13375
0.13425
0.13475
0.13525
0.13575
0.13625
0.13675
0.13725
0.13775
0.13825
0.13875
0.13925
0.13975
0.14025
0.14075
0.14125
0.14175
0.14225
0.14275
0.14325
0.14375
0.14425
0.14475
0.14525
0.14575
0.14625
0.14675
0.14725
0.14775
0.14825
0.14875
0.14925
0.14975
0.150252
0.150763
0.151286
0.151821
0.15237
0.152931
0.153507
0.154096
0.154699
0.155317
0.15595
0.156599
0.157263
0.157943
0.158639
0.159353
0.160083
0.160832
0.161598
0.162383
0.163187
0.16401
0.164854
0.165717
0.166602
0.167508
0.168436
0.169386
0.17036
0.171357
0.172378
0.173423
0.174494
0.175591
0.176715
0.177865
0.179044
0.180251
0.181487
0.182753
0.184049
0.185378
0.186738
0.188131
0.189558
0.191019
0.192515
0.194048
0.195618
0.197226
0.198873
0.200559
0.202287
0.204056
0.205868
0.207724
0.209625
0.211571
0.213565
0.215607
0.217699
0.219841
0.222034
0.224281
0.226583
0.228939
0.231353
0.233826
0.236358
0.238951
0.241607
0.244328
0.247114
0.249967
0.25289
0.255883
0.258949
0.262089
0.265304
0.268598
0.271971
0.275426
0.278964
0.282588
0.2863
0.290101
0.293995
0.297982
0.302
0.306
0.31
0.314
0.318
0.322
0.326
0.33
0.334
0.338
0.342
0.346
0.35
0.354
0.358
0.362
0.366
0.37
0.374
0.378
0.382
0.386
0.39
0.394
0.398
0.402
0.406
0.41
0.414
0.418
0.422
0.426
0.43
0.434
0.438
0.442
0.446
0.45
0.454
0.458
0.462
0.466
0.47
0.474
0.478
0.482
0.486
0.49
0.494
0.498
)
;

boundaryField
{
    inlet
    {
        type            cyclic;
    }
    outlet
    {
        type            cyclic;
    }
    top
    {
        type            symmetryPlane;
    }
    bottom
    {
        type            calculated;
        value           uniform 0;
    }
    frontAndBackPlanes
    {
        type            empty;
    }
}


// ************************************************************************* //
