/*--------------------------------*- C++ -*----------------------------------*\
| =========                 |                                                 |
| \\      /  F ield         | OpenFOAM: The Open Source CFD Toolbox           |
|  \\    /   O peration     | Version:  2.4.0                                 |
|   \\  /    A nd           | Web:      www.OpenFOAM.org                      |
|    \\/     M anipulation  |                                                 |
\*---------------------------------------------------------------------------*/
FoamFile
{
    version     2.0;
    format      ascii;
    class       volScalarField;
    location    "0";
    object      V;
}
// * * * * * * * * * * * * * * * * * * * * * * * * * * * * * * * * * * * * * //

dimensions      [0 3 0 0 0 0 0];

internalField   nonuniform List<scalar> 
438
(
4.6e-07
4.6e-07
4.6e-07
4.6e-07
4.6e-07
4.6e-07
4.6e-07
4.6e-07
4.6e-07
4.6e-07
4.6e-07
4.6e-07
4.6e-07
4.6e-07
4.6e-07
4.6e-07
4.6e-07
4.6e-07
4.6e-07
4.6e-07
4.6e-07
4.6e-07
4.6e-07
4.6e-07
4.6e-07
4.6e-07
4.6e-07
4.6e-07
4.6e-07
4.6e-07
4.6e-07
4.6e-07
4.6e-07
4.6e-07
4.6e-07
4.6e-07
4.6e-07
4.6e-07
4.6e-07
4.6e-07
4.6e-07
4.6e-07
4.6e-07
4.6e-07
4.6e-07
4.6e-07
4.6e-07
4.6e-07
4.6e-07
4.6e-07
4.6e-07
4.6e-07
4.6e-07
4.6e-07
4.6e-07
4.6e-07
4.6e-07
4.6e-07
4.6e-07
4.6e-07
4.6e-07
4.6e-07
4.6e-07
4.6e-07
4.6e-07
4.6e-07
4.6e-07
4.6e-07
4.6e-07
4.6e-07
4.6e-07
4.6e-07
4.6e-07
4.6e-07
4.6e-07
4.6e-07
4.6e-07
4.6e-07
4.6e-07
4.6e-07
4.6e-07
4.6e-07
4.6e-07
4.6e-07
4.6e-07
4.6e-07
4.6e-07
4.6e-07
4.6e-07
4.6e-07
4.6e-07
4.6e-07
4.6e-07
4.6e-07
4.6e-07
4.6e-07
4.6e-07
4.6e-07
4.6e-07
4.6e-07
4.6e-07
4.6e-07
4.6e-07
4.6e-07
4.6e-07
4.6e-07
4.6e-07
4.6e-07
4.6e-07
4.6e-07
4.6e-07
4.6e-07
4.6e-07
4.6e-07
4.6e-07
4.6e-07
4.6e-07
4.6e-07
4.6e-07
4.6e-07
4.6e-07
4.6e-07
4.6e-07
4.6e-07
4.6e-07
4.6e-07
4.6e-07
4.6e-07
4.6e-07
4.6e-07
4.6e-07
4.6e-07
4.6e-07
4.6e-07
4.6e-07
4.6e-07
4.6e-07
4.6e-07
4.6e-07
4.6e-07
4.6e-07
4.6e-07
4.6e-07
4.6e-07
4.6e-07
4.6e-07
4.6e-07
4.6e-07
4.6e-07
4.6e-07
4.6e-07
4.6e-07
4.6e-07
4.6e-07
4.6e-07
4.6e-07
4.6e-07
4.6e-07
4.6e-07
4.6e-07
4.6e-07
4.6e-07
4.6e-07
4.6e-07
4.6e-07
4.6e-07
4.6e-07
4.6e-07
4.6e-07
4.6e-07
4.6e-07
4.6e-07
4.6e-07
4.6e-07
4.6e-07
4.6e-07
4.6e-07
4.6e-07
4.6e-07
4.6e-07
4.6e-07
4.6e-07
4.6e-07
4.6e-07
4.6e-07
4.6e-07
4.6e-07
4.6e-07
4.6e-07
4.6e-07
4.6e-07
4.6e-07
4.6e-07
4.6e-07
4.6e-07
4.6e-07
4.6e-07
4.6e-07
4.6e-07
4.6e-07
4.6e-07
4.6e-07
4.6e-07
4.6e-07
4.6e-07
4.6e-07
4.6e-07
4.6e-07
4.6e-07
4.6e-07
4.6e-07
4.6e-07
4.6e-07
4.6e-07
4.6e-07
4.6e-07
4.6e-07
4.6e-07
4.6e-07
4.6e-07
4.6e-07
4.6e-07
4.6e-07
4.6e-07
4.6e-07
4.6e-07
4.6e-07
4.6e-07
4.6e-07
4.6e-07
4.6e-07
4.6e-07
4.6e-07
4.6e-07
4.6e-07
4.6e-07
4.6e-07
4.6e-07
4.6e-07
4.6e-07
4.6e-07
4.6e-07
4.6e-07
4.6e-07
4.6e-07
4.6e-07
4.6e-07
4.6e-07
4.6e-07
4.6e-07
4.6e-07
4.6e-07
4.6e-07
4.6e-07
4.6e-07
4.6e-07
4.6e-07
4.6e-07
4.6e-07
4.6e-07
4.6e-07
4.6e-07
4.6e-07
4.6e-07
4.6e-07
4.6e-07
4.6e-07
4.6e-07
4.6e-07
4.6e-07
4.6e-07
4.6e-07
4.6e-07
4.6e-07
4.6e-07
4.6e-07
4.6e-07
4.6e-07
4.6e-07
4.6e-07
4.6e-07
4.6e-07
4.6e-07
4.6e-07
4.6e-07
4.6e-07
4.6e-07
4.6e-07
4.6e-07
4.6e-07
4.6e-07
4.6e-07
4.6e-07
4.6e-07
4.6e-07
4.6e-07
4.6e-07
4.6e-07
4.6e-07
4.6e-07
4.64051e-07
4.75276e-07
4.86773e-07
4.98548e-07
5.10608e-07
5.22959e-07
5.35609e-07
5.48565e-07
5.61835e-07
5.75425e-07
5.89345e-07
6.036e-07
6.18201e-07
6.33155e-07
6.48471e-07
6.64157e-07
6.80223e-07
6.96677e-07
7.1353e-07
7.3079e-07
7.48467e-07
7.66572e-07
7.85115e-07
8.04107e-07
8.23558e-07
8.43479e-07
8.63883e-07
8.8478e-07
9.06182e-07
9.28102e-07
9.50553e-07
9.73546e-07
9.97096e-07
1.02121e-06
1.04592e-06
1.07122e-06
1.09713e-06
1.12367e-06
1.15085e-06
1.17869e-06
1.2072e-06
1.2364e-06
1.26631e-06
1.29694e-06
1.32831e-06
1.36045e-06
1.39335e-06
1.42706e-06
1.46158e-06
1.49693e-06
1.53314e-06
1.57023e-06
1.60821e-06
1.64712e-06
1.68696e-06
1.72777e-06
1.76956e-06
1.81236e-06
1.8562e-06
1.90111e-06
1.94709e-06
1.99419e-06
2.04243e-06
2.09184e-06
2.14244e-06
2.19426e-06
2.24734e-06
2.3017e-06
2.35738e-06
2.4144e-06
2.47281e-06
2.53262e-06
2.59388e-06
2.65663e-06
2.72089e-06
2.78671e-06
2.85412e-06
2.92316e-06
2.99387e-06
3.06629e-06
3.14046e-06
3.21643e-06
3.29423e-06
3.37392e-06
3.45553e-06
3.53912e-06
3.62473e-06
3.71241e-06
3.68e-06
3.68e-06
3.68e-06
3.68e-06
3.68e-06
3.68e-06
3.68e-06
3.68e-06
3.68e-06
3.68e-06
3.68e-06
3.68e-06
3.68e-06
3.68e-06
3.68e-06
3.68e-06
3.68e-06
3.68e-06
3.68e-06
3.68e-06
3.68e-06
3.68e-06
3.68e-06
3.68e-06
3.68e-06
3.68e-06
3.68e-06
3.68e-06
3.68e-06
3.68e-06
3.68e-06
3.68e-06
3.68e-06
3.68e-06
3.68e-06
3.68e-06
3.68e-06
3.68e-06
3.68e-06
3.68e-06
3.68e-06
3.68e-06
3.68e-06
3.68e-06
3.68e-06
3.68e-06
3.68e-06
3.68e-06
3.68e-06
3.68e-06
)
;

boundaryField
{
    inlet
    {
        type            cyclic;
    }
    outlet
    {
        type            cyclic;
    }
    top
    {
        type            symmetryPlane;
    }
    bottom
    {
        type            calculated;
        value           uniform 0.00092;
    }
    frontAndBackPlanes
    {
        type            empty;
    }
}


// ************************************************************************* //
