/*--------------------------------*- C++ -*----------------------------------*\
| =========                 |                                                 |
| \\      /  F ield         | OpenFOAM: The Open Source CFD Toolbox           |
|  \\    /   O peration     | Version:  2.4.0                                 |
|   \\  /    A nd           | Web:      www.OpenFOAM.org                      |
|    \\/     M anipulation  |                                                 |
\*---------------------------------------------------------------------------*/
FoamFile
{
    version     2.0;
    format      ascii;
    class       volScalarField;
    location    "250";
    object      alpha;
}
// * * * * * * * * * * * * * * * * * * * * * * * * * * * * * * * * * * * * * //

dimensions      [0 0 0 0 0 0 0];

internalField   nonuniform List<scalar> 
438
(
0.612262
0.612236
0.612212
0.612187
0.612162
0.612136
0.61211
0.612084
0.612058
0.612032
0.612005
0.611978
0.611952
0.611923
0.611896
0.611869
0.611841
0.611813
0.611785
0.611757
0.611728
0.611699
0.61167
0.611641
0.611612
0.611582
0.611552
0.611522
0.611491
0.611461
0.61143
0.611399
0.611366
0.611335
0.611303
0.61127
0.611238
0.611205
0.611172
0.611138
0.611104
0.61107
0.611036
0.611001
0.610966
0.610931
0.610897
0.610862
0.610826
0.61079
0.610753
0.610714
0.610673
0.61063
0.610585
0.610542
0.610501
0.610467
0.610438
0.610415
0.610395
0.610377
0.61036
0.610343
0.610325
0.610308
0.610291
0.610273
0.610255
0.610238
0.610221
0.610203
0.610186
0.610168
0.61015
0.610133
0.610115
0.610098
0.61008
0.610063
0.610045
0.610027
0.61001
0.609992
0.609975
0.609956
0.609939
0.609922
0.609903
0.609886
0.609868
0.609851
0.609832
0.609814
0.609797
0.609778
0.60976
0.609743
0.609723
0.609706
0.609688
0.609669
0.609649
0.60963
0.609611
0.609591
0.60957
0.609549
0.609527
0.609503
0.609478
0.609451
0.609422
0.609388
0.609351
0.609309
0.60926
0.609203
0.609133
0.60905
0.608949
0.608825
0.608672
0.608478
0.608233
0.60792
0.607516
0.606996
0.606323
0.605441
0.60428
0.603367
0.603327
0.603473
0.6033
0.602917
0.602609
0.602334
0.602012
0.601646
0.601251
0.600824
0.600345
0.599769
0.599053
0.598276
0.597478
0.596033
0.592962
0.588959
0.135144
0.00682092
0.000779854
0.000130442
4.01395e-05
7.79159e-06
5.47473e-06
3.82308e-07
8.72268e-13
1.10273e-25
4.74191e-37
1.06791e-48
1.86964e-60
2.95432e-72
4.22623e-84
4.78707e-96
6.05976e-108
8.1079e-112
4.75462e-122
3.64522e-126
4.8529e-128
5.82638e-130
6.89401e-132
6.10855e-134
4.00258e-136
2.33438e-146
6.50319e-157
1.31615e-167
2.0288e-178
2.82981e-189
4.9674e-192
6.25471e-194
7.52486e-196
6.80158e-198
4.493e-200
2.91363e-210
9.49152e-221
2.11245e-231
3.59607e-242
4.84237e-253
5.89805e-264
5.66871e-275
5.0846e-286
4.07412e-297
2.71425e-308
5.13028e-319
3.31676e-319
3.19809e-319
3.14112e-319
3.20668e-319
3.16869e-319
3.14883e-319
3.21988e-319
3.24413e-319
3.18934e-319
3.1426e-319
3.18401e-319
3.22699e-319
3.1849e-319
3.14438e-319
3.17877e-319
3.18109e-319
3.20446e-319
3.02156e-319
2.57463e-319
2.43485e-319
2.37823e-319
2.32863e-319
2.3852e-319
2.38001e-319
2.4685e-319
2.42636e-319
2.46568e-319
2.54572e-319
2.55802e-319
2.56079e-319
2.97645e-319
3.25174e-319
3.34907e-319
3.32941e-319
3.25481e-319
3.24972e-319
3.23569e-319
3.16864e-319
3.2301e-319
3.26701e-319
3.2847e-319
3.21582e-319
3.15634e-319
3.14394e-319
3.14107e-319
3.15846e-319
3.1473e-319
3.14695e-319
3.28835e-319
3.31498e-319
3.3507e-319
3.36824e-319
3.45466e-319
3.45377e-319
3.32882e-319
3.16859e-319
3.20599e-319
3.1432e-319
3.16622e-319
2.87828e-319
2.41588e-319
2.33886e-319
2.44928e-319
2.45961e-319
2.45229e-319
2.94967e-319
2.96341e-319
2.48688e-319
2.28668e-319
2.19795e-319
2.281e-319
2.33658e-319
2.22957e-319
2.24385e-319
2.19098e-319
2.17863e-319
2.05339e-319
2.0193e-319
1.65388e-319
1.55398e-319
1.58254e-319
1.60077e-319
1.70092e-319
1.68071e-319
1.55739e-319
1.72123e-319
1.54875e-319
1.65957e-319
1.65645e-319
1.20517e-319
7.8344e-320
7.64665e-320
6.92285e-320
6.70101e-320
6.84281e-320
6.56663e-320
6.43026e-320
5.77019e-320
4.59629e-320
2.46242e-320
1.1823e-320
0
4.88137e-321
1.12153e-321
6.90704e-321
1.04742e-321
9.34772e-321
7.29241e-321
1.06521e-320
7.49004e-321
5.7114e-321
8.12244e-321
2.43821e-320
1.56915e-320
6.11653e-321
5.76081e-321
7.70742e-321
9.38725e-322
2.78653e-321
7.46039e-322
9.44654e-321
1.5316e-321
4.86655e-321
1.2238e-320
2.47527e-321
0
2.2233e-321
3.07309e-321
7.83094e-321
1.12351e-320
5.18275e-321
7.32205e-321
3.83395e-321
7.12937e-321
1.86757e-321
0
1.78358e-321
4.52564e-321
6.20546e-321
8.20643e-321
3.67585e-321
4.74303e-322
3.00886e-321
5.36555e-321
2.86558e-321
2.89522e-321
1.4822e-323
0
0
0
0
0
0
0
0
0
0
0
0
0
0
0
0
0
0
0
0
0
0
0
0
0
0
0
0
0
0
0
0
0
0
0
0
0
0
0
0
0
0
0
0
0
0
0
0
0
0
0
0
0
0
0
0
0
0
0
0
0
0
0
0
0
0
0
0
0
0
0
0
0
0
0
0
0
0
0
0
0
0
0
0
0
0
0
0
0
0
0
0
0
0
0
)
;

boundaryField
{
    inlet
    {
        type            cyclic;
    }
    outlet
    {
        type            cyclic;
    }
    top
    {
        type            symmetryPlane;
    }
    bottom
    {
        type            zeroGradient;
    }
    frontAndBackPlanes
    {
        type            empty;
    }
}


// ************************************************************************* //
