/*--------------------------------*- C++ -*----------------------------------*\
| =========                 |                                                 |
| \\      /  F ield         | OpenFOAM: The Open Source CFD Toolbox           |
|  \\    /   O peration     | Version:  2.4.0                                 |
|   \\  /    A nd           | Web:      www.OpenFOAM.org                      |
|    \\/     M anipulation  |                                                 |
\*---------------------------------------------------------------------------*/
FoamFile
{
    version     2.0;
    format      ascii;
    class       volVectorField;
    location    "250";
    object      dTausdz;
}
// * * * * * * * * * * * * * * * * * * * * * * * * * * * * * * * * * * * * * //

dimensions      [0 1 -2 0 0 0 0];

internalField   nonuniform List<vector> 
438
(
(-0.733603 0.438135 0)
(-0.742287 1.11788 0)
(-0.714433 1.38396 0)
(-0.74066 1.30949 0)
(-0.691147 1.20463 0)
(-0.739068 1.10062 0)
(-0.667845 1.1675 0)
(-0.737536 1.24956 0)
(-0.644516 1.31068 0)
(-0.736081 1.24495 0)
(-0.621154 1.12756 0)
(-0.734726 1.39142 0)
(-0.597751 1.28528 0)
(-0.733488 1.22617 0)
(-0.574301 1.44157 0)
(-0.732388 1.37975 0)
(-0.550795 1.28021 0)
(-0.731448 1.38526 0)
(-0.527227 1.42336 0)
(-0.730683 1.38715 0)
(-0.503588 1.27665 0)
(-0.730114 1.40385 0)
(-0.479872 1.43919 0)
(-0.729759 1.56992 0)
(-0.45607 1.45839 0)
(-0.729635 1.43713 0)
(-0.432178 1.47116 0)
(-0.72976 1.46277 0)
(-0.408186 1.49522 0)
(-0.730152 1.63628 0)
(-0.38409 1.52139 0)
(-0.730826 1.53861 0)
(-0.359881 1.54533 0)
(-0.7318 1.70711 0)
(-0.335555 1.44862 0)
(-0.733089 1.61728 0)
(-0.311105 1.61962 0)
(-0.734708 1.65519 0)
(-0.286525 1.53713 0)
(-0.736672 1.58405 0)
(-0.261811 1.58808 0)
(-0.738995 1.77198 0)
(-0.236957 1.65081 0)
(-0.741691 1.7321 0)
(-0.211959 1.73397 0)
(-0.744771 2.06163 0)
(-0.186813 2.05498 0)
(-0.748247 2.13704 0)
(-0.161514 1.9815 0)
(-0.752133 1.92223 0)
(-0.136062 1.50958 0)
(-0.756443 1.22367 0)
(-0.110454 0.720368 0)
(-0.761193 0.516166 0)
(-0.0846873 0.558855 0)
(-0.766386 1.36312 0)
(-0.0587592 2.4561 0)
(-0.77201 4.16608 0)
(-0.032669 5.42668 0)
(-0.778059 6.84295 0)
(-0.00642008 7.3551 0)
(-0.784549 7.82855 0)
(0.0199841 7.82541 0)
(-0.791501 8.02895 0)
(0.0465408 7.88292 0)
(-0.798924 8.07595 0)
(0.0732465 7.91405 0)
(-0.80682 8.02212 0)
(0.100097 7.85349 0)
(-0.815194 8.17015 0)
(0.127087 7.98734 0)
(-0.824042 8.21666 0)
(0.15421 7.93254 0)
(-0.833368 8.16011 0)
(0.181457 8.06061 0)
(-0.843167 8.20767 0)
(0.208821 8.00969 0)
(-0.853438 8.34983 0)
(0.236288 8.13554 0)
(-0.864172 8.30723 0)
(0.263849 8.07807 0)
(-0.875366 8.43941 0)
(0.291488 8.10975 0)
(-0.88701 8.39178 0)
(0.31919 8.15102 0)
(-0.899091 8.43283 0)
(0.346937 8.2781 0)
(-0.911597 8.47796 0)
(0.374711 8.22258 0)
(-0.924515 8.52202 0)
(0.40249 8.24688 0)
(-0.937825 8.56558 0)
(0.43025 8.19471 0)
(-0.95151 8.60411 0)
(0.457965 8.31718 0)
(-0.965543 8.55736 0)
(0.485609 8.35061 0)
(-0.979902 8.60132 0)
(0.51315 8.29133 0)
(-0.994561 8.71871 0)
(0.540554 8.22569 0)
(-1.00949 8.49894 0)
(0.567791 8.16795 0)
(-1.02465 8.52154 0)
(0.59482 8.18226 0)
(-1.04001 8.37872 0)
(0.621603 7.85982 0)
(-1.05554 8.13538 0)
(0.648098 7.59504 0)
(-1.07119 7.714 0)
(0.674264 6.99623 0)
(-1.08693 7.02131 0)
(0.700057 6.1238 0)
(-1.10272 5.82678 0)
(0.725435 4.67502 0)
(-1.11851 4.05357 0)
(0.750357 2.4235 0)
(-1.13428 1.1484 0)
(0.774791 -1.26438 0)
(-1.15002 -3.17171 0)
(0.798711 -6.48818 0)
(-1.16571 -9.60263 0)
(0.822118 -14.3098 0)
(-1.18141 -18.9785 0)
(0.845056 -25.1481 0)
(-1.19724 -31.0467 0)
(0.867649 -37.7974 0)
(-1.21347 -43.051 0)
(0.890158 -47.3043 0)
(-1.23363 -47.3896 0)
(0.916388 -35.8276 0)
(-1.24798 -8.21381 0)
(0.93361 10.7456 0)
(-1.26122 10.5317 0)
(0.951664 3.03073 0)
(-1.27482 1.79838 0)
(0.969708 3.11204 0)
(-1.28785 3.92506 0)
(0.986494 3.16364 0)
(-1.30043 3.53339 0)
(1.00238 3.22588 0)
(-1.31256 3.71485 0)
(1.01733 3.04421 0)
(-1.32446 3.07541 0)
(1.03155 2.74503 0)
(-1.33652 3.97811 0)
(1.04575 2.86898 0)
(-1.31445 1.19887 0)
(0.400904 1.47136 0)
(-1.16541 2.86404 0)
(-7.54857 1.08568 0)
(-0.589179 -0.0111055 0)
(-0.116626 -0.0122389 0)
(-0.0273753 0.116319 0)
(-0.0105018 -0.243917 0)
(0.00189627 0.329943 0)
(-0.00822871 -0.336977 0)
(0.0290698 0.275171 0)
(0.00125374 0.0460776 0)
(4.75212e-11 0.00759059 0)
(1.64177e-27 8.62843e-11 0)
(5.44313e-39 1.681e-28 0)
(1.35502e-50 -1.13107e-40 0)
(2.29127e-62 1.46536e-52 0)
(3.85532e-74 -6.17339e-65 0)
(5.39242e-86 1.35183e-76 0)
(6.29275e-98 4.1707e-89 0)
(7.88694e-110 1.27406e-100 0)
(1.06412e-113 1.13581e-112 0)
(6.20547e-124 1.78401e-116 0)
(4.74435e-128 9.52169e-127 0)
(6.27394e-130 7.67699e-131 0)
(7.46894e-132 9.79025e-133 0)
(8.74877e-134 1.14153e-134 0)
(7.65562e-136 1.29364e-136 0)
(4.9458e-138 1.09377e-138 0)
(2.83766e-148 6.7457e-141 0)
(7.76275e-159 3.75411e-151 0)
(1.53914e-169 9.95341e-162 0)
(2.31917e-180 1.90501e-172 0)
(3.15392e-191 2.76238e-183 0)
(5.38433e-194 3.61492e-194 0)
(6.57208e-196 6.05331e-197 0)
(7.63829e-198 6.95566e-199 0)
(6.64419e-200 7.47838e-201 0)
(4.20475e-202 5.93641e-203 0)
(2.60023e-212 3.32375e-205 0)
(8.03363e-223 1.79078e-215 0)
(1.68517e-233 4.58242e-226 0)
(2.68469e-244 7.28163e-237 0)
(3.35605e-255 7.24348e-248 0)
(3.76014e-266 2.65311e-259 0)
(3.28991e-277 -5.45357e-270 0)
(2.65482e-288 -1.34117e-280 0)
(1.88835e-299 -1.89617e-291 0)
(1.09997e-310 -2.02129e-302 0)
(0 0 0)
(0 0 0)
(0 0 0)
(0 0 0)
(0 0 0)
(0 0 0)
(0 0 0)
(0 0 0)
(0 0 0)
(0 0 0)
(0 0 0)
(0 0 0)
(0 0 0)
(0 0 0)
(0 0 0)
(0 0 0)
(0 0 0)
(0 0 0)
(0 0 0)
(0 0 0)
(0 0 0)
(0 0 0)
(0 0 0)
(0 0 0)
(0 0 0)
(0 0 0)
(0 0 0)
(0 0 0)
(0 0 0)
(0 0 0)
(0 0 0)
(0 0 0)
(0 0 0)
(0 0 0)
(0 0 0)
(0 0 0)
(0 0 0)
(0 0 0)
(0 0 0)
(0 0 0)
(0 0 0)
(0 0 0)
(0 0 0)
(0 0 0)
(0 0 0)
(0 0 0)
(0 0 0)
(0 0 0)
(0 0 0)
(0 0 0)
(0 0 0)
(0 0 0)
(0 0 0)
(0 0 0)
(0 0 0)
(0 0 0)
(0 0 0)
(0 0 0)
(0 0 0)
(0 0 0)
(0 0 0)
(0 0 0)
(0 0 0)
(0 0 0)
(0 0 0)
(0 0 0)
(0 0 0)
(0 0 0)
(0 0 0)
(0 0 0)
(0 0 0)
(0 0 0)
(0 0 0)
(0 0 0)
(0 0 0)
(0 0 0)
(0 0 0)
(0 0 0)
(0 0 0)
(0 0 0)
(0 0 0)
(0 0 0)
(0 0 0)
(0 0 0)
(0 0 0)
(0 0 0)
(0 0 0)
(0 0 0)
(0 0 0)
(0 0 0)
(0 0 0)
(0 0 0)
(0 0 0)
(0 0 0)
(0 0 0)
(0 0 0)
(0 0 0)
(0 0 0)
(0 0 0)
(0 0 0)
(0 0 0)
(0 0 0)
(0 0 0)
(0 0 0)
(0 0 0)
(0 0 0)
(0 0 0)
(0 0 0)
(0 0 0)
(0 0 0)
(0 0 0)
(0 0 0)
(0 0 0)
(0 0 0)
(0 0 0)
(0 0 0)
(0 0 0)
(0 0 0)
(0 0 0)
(0 0 0)
(0 0 0)
(0 0 0)
(0 0 0)
(0 0 0)
(0 0 0)
(0 0 0)
(0 0 0)
(0 0 0)
(0 0 0)
(0 0 0)
(0 0 0)
(0 0 0)
(0 0 0)
(0 0 0)
(0 0 0)
(0 0 0)
(0 0 0)
(0 0 0)
(0 0 0)
(0 0 0)
(0 0 0)
(0 0 0)
(0 0 0)
(0 0 0)
(0 0 0)
(0 0 0)
(0 0 0)
(0 0 0)
(0 0 0)
(0 0 0)
(0 0 0)
(0 0 0)
(0 0 0)
(0 0 0)
(0 0 0)
(0 0 0)
(0 0 0)
(0 0 0)
(0 0 0)
(0 0 0)
(0 0 0)
(0 0 0)
(0 0 0)
(0 0 0)
(0 0 0)
(0 0 0)
(0 0 0)
(0 0 0)
(0 0 0)
(0 0 0)
(0 0 0)
(0 0 0)
(0 0 0)
(0 0 0)
(0 0 0)
(0 0 0)
(0 0 0)
(0 0 0)
(0 0 0)
(0 0 0)
(0 0 0)
(0 0 0)
(0 0 0)
(0 0 0)
(0 0 0)
(0 0 0)
(0 0 0)
(0 0 0)
(0 0 0)
(0 0 0)
(0 0 0)
(0 0 0)
(0 0 0)
(0 0 0)
(0 0 0)
(0 0 0)
(0 0 0)
(0 0 0)
(0 0 0)
(0 0 0)
(0 0 0)
(0 0 0)
(0 0 0)
(0 0 0)
(0 0 0)
(0 0 0)
(0 0 0)
(0 0 0)
(0 0 0)
(0 0 0)
(0 0 0)
(0 0 0)
(0 0 0)
(0 0 0)
(0 0 0)
(0 0 0)
(0 0 0)
(0 0 0)
(0 0 0)
(0 0 0)
(0 0 0)
(0 0 0)
(0 0 0)
(0 0 0)
(0 0 0)
(0 0 0)
(0 0 0)
(0 0 0)
(0 0 0)
(0 0 0)
(0 0 0)
(0 0 0)
(0 0 0)
(0 0 0)
(0 0 0)
(0 0 0)
(0 0 0)
(0 0 0)
(0 0 0)
(0 0 0)
(0 0 0)
(0 0 0)
)
;

boundaryField
{
    inlet
    {
        type            cyclic;
    }
    outlet
    {
        type            cyclic;
    }
    top
    {
        type            symmetryPlane;
    }
    bottom
    {
        type            zeroGradient;
    }
    frontAndBackPlanes
    {
        type            empty;
    }
}


// ************************************************************************* //
