/*--------------------------------*- C++ -*----------------------------------*\
| =========                 |                                                 |
| \\      /  F ield         | OpenFOAM: The Open Source CFD Toolbox           |
|  \\    /   O peration     | Version:  2.4.0                                 |
|   \\  /    A nd           | Web:      www.OpenFOAM.org                      |
|    \\/     M anipulation  |                                                 |
\*---------------------------------------------------------------------------*/
FoamFile
{
    version     2.0;
    format      ascii;
    class       volVectorField;
    location    "250";
    object      dTaufdz;
}
// * * * * * * * * * * * * * * * * * * * * * * * * * * * * * * * * * * * * * //

dimensions      [0 1 -2 0 0 0 0];

internalField   nonuniform List<vector> 
438
(
(-0.00247963 -1.76236e-11 0)
(-5.12289e-06 -5.40913e-11 0)
(-3.99732e-10 -6.63227e-11 0)
(2.73407e-10 -6.27798e-11 0)
(1.02767e-08 -6.12339e-11 0)
(1.68688e-10 -5.47551e-11 0)
(5.91009e-11 -5.98618e-11 0)
(6.20264e-11 -6.11492e-11 0)
(1.65981e-10 -6.62835e-11 0)
(1.03485e-08 -6.25689e-11 0)
(4.71168e-11 -5.44125e-11 0)
(-9.99535e-09 -7.22291e-11 0)
(2.0428e-08 -6.35106e-11 0)
(-9.99633e-09 -5.91411e-11 0)
(4.69196e-11 -7.48618e-11 0)
(1.03809e-08 -6.66977e-11 0)
(1.75169e-10 -6.48299e-11 0)
(6.0241e-11 -6.81116e-11 0)
(1.7483e-10 -7.25368e-11 0)
(1.0385e-08 -6.78223e-11 0)
(1.80174e-10 -6.4946e-11 0)
(8.914e-11 -6.97366e-11 0)
(8.33376e-11 -7.17194e-11 0)
(1.87639e-10 -7.76042e-11 0)
(1.0406e-08 -7.31951e-11 0)
(1.74468e-10 -6.975e-11 0)
(1.85233e-10 -7.71604e-11 0)
(1.03408e-08 -6.89032e-11 0)
(-1.00549e-08 -7.77985e-11 0)
(1.03355e-08 -7.83774e-11 0)
(2.99701e-10 -7.86817e-11 0)
(1.03506e-08 -7.30196e-11 0)
(-1.0085e-08 -7.98199e-11 0)
(1.04725e-08 -8.428e-11 0)
(1.04682e-08 -7.09805e-11 0)
(-1.00812e-08 -8.16183e-11 0)
(1.03766e-08 -8.07041e-11 0)
(3.03016e-10 -8.12925e-11 0)
(1.04796e-08 -7.82868e-11 0)
(2.21208e-10 -7.72386e-11 0)
(1.08201e-10 -8.0836e-11 0)
(2.25586e-10 -8.66492e-11 0)
(1.05224e-08 -8.31227e-11 0)
(2.44411e-10 -8.47269e-11 0)
(4.77183e-11 -8.64213e-11 0)
(-1.01619e-08 -1.00815e-10 0)
(1.046e-08 -1.00781e-10 0)
(2.96112e-10 -1.03192e-10 0)
(1.05786e-08 -1.00246e-10 0)
(1.07547e-08 -9.41448e-11 0)
(2.11531e-08 -8.05405e-11 0)
(2.12624e-08 -6.22799e-11 0)
(2.13148e-08 -4.79519e-11 0)
(2.11023e-08 -2.48234e-11 0)
(-2.05737e-08 -3.93784e-11 0)
(-2.11744e-08 -5.5119e-11 0)
(-7.32675e-08 -1.18718e-10 0)
(-5.28114e-08 -1.80753e-10 0)
(-6.30682e-08 -2.49448e-10 0)
(-4.20751e-08 -3.127e-10 0)
(-1.0638e-08 -3.4381e-10 0)
(-1.0417e-08 -3.66492e-10 0)
(-2.53344e-11 -3.75779e-10 0)
(5.38005e-11 -3.79382e-10 0)
(1.55794e-11 -3.81621e-10 0)
(2.82531e-11 -3.81718e-10 0)
(9.15782e-11 -3.85775e-10 0)
(1.04516e-08 -3.76553e-10 0)
(-1.04017e-08 -3.82968e-10 0)
(-2.4688e-11 -3.85258e-10 0)
(1.51057e-11 -3.85698e-10 0)
(1.1861e-10 -3.90409e-10 0)
(1.0435e-08 -3.8138e-10 0)
(-1.03962e-08 -3.87055e-10 0)
(2.30045e-11 -3.91953e-10 0)
(1.04847e-08 -3.83264e-10 0)
(-1.04211e-08 -3.90789e-10 0)
(-3.12959e-11 -3.91544e-10 0)
(9.92469e-11 -3.96141e-10 0)
(1.04824e-08 -3.87797e-10 0)
(-1.04425e-08 -3.93586e-10 0)
(5.60417e-11 -3.98308e-10 0)
(1.04556e-08 -3.88911e-10 0)
(-1.03296e-08 -3.99302e-10 0)
(1.03958e-08 -3.90927e-10 0)
(-1.04056e-08 -3.97384e-10 0)
(2.0797e-11 -4.02514e-10 0)
(1.05034e-08 -3.93346e-10 0)
(-1.03785e-08 -4.03792e-10 0)
(1.04347e-08 -3.94569e-10 0)
(-1.03833e-08 -4.03956e-10 0)
(1.05224e-08 -3.99195e-10 0)
(5.42337e-12 -3.96155e-10 0)
(-1.0422e-08 -4.05654e-10 0)
(1.04988e-08 -4.0127e-10 0)
(3.72616e-11 -3.97842e-10 0)
(-1.03907e-08 -4.11092e-10 0)
(2.09443e-08 -3.93711e-10 0)
(-2.08979e-08 -4.08208e-10 0)
(1.053e-08 -4.05309e-10 0)
(1.06238e-08 -3.98789e-10 0)
(1.01915e-10 -3.97788e-10 0)
(5.45216e-12 -3.96999e-10 0)
(4.34687e-11 -3.9573e-10 0)
(1.30148e-10 -4.00542e-10 0)
(2.11573e-08 -3.87131e-10 0)
(1.68223e-10 -3.86042e-10 0)
(1.06464e-08 -3.78505e-10 0)
(1.07286e-08 -3.72342e-10 0)
(2.13391e-08 -3.5986e-10 0)
(2.13322e-08 -3.43932e-10 0)
(2.1504e-08 -3.30742e-10 0)
(4.26032e-08 -3.04028e-10 0)
(4.28337e-08 -2.74777e-10 0)
(5.34887e-08 -2.4119e-10 0)
(7.48423e-08 -1.92054e-10 0)
(8.58475e-08 -1.42711e-10 0)
(1.3904e-07 -5.96363e-11 0)
(1.39738e-07 2.41598e-11 0)
(1.93415e-07 1.30585e-10 0)
(2.47648e-07 2.5933e-10 0)
(3.23812e-07 4.12407e-10 0)
(4.32757e-07 5.98377e-10 0)
(5.6477e-07 8.13168e-10 0)
(7.41977e-07 1.04641e-09 0)
(9.98297e-07 1.29979e-09 0)
(1.28306e-06 1.5216e-09 0)
(1.71923e-06 1.72828e-09 0)
(2.35003e-06 1.80609e-09 0)
(3.19389e-06 2.35104e-09 0)
(-2.63544e-06 2.13426e-09 0)
(-9.73295e-06 3.54958e-10 0)
(-2.083e-06 4.40753e-11 0)
(3.56433e-06 -1.85593e-10 0)
(2.36136e-06 -2.11014e-10 0)
(-8.21136e-07 -3.40591e-10 0)
(-3.61289e-07 -1.96945e-10 0)
(5.39057e-07 -1.67765e-10 0)
(5.11439e-07 -2.1309e-10 0)
(3.46346e-07 -2.3122e-10 0)
(3.72983e-07 -2.52972e-10 0)
(6.29991e-07 5.32303e-11 0)
(1.14482e-06 -6.3347e-09 0)
(1.65756e-06 3.54922e-08 0)
(7.71664e-07 -1.92709e-07 0)
(3.37922e-07 8.78071e-07 0)
(7.74991e-06 -3.01147e-06 0)
(2.15387e-05 7.00408e-06 0)
(0.00068882 -4.6992e-05 0)
(0.269424 -0.0297058 0)
(0.630836 -0.0756664 0)
(-0.247605 -0.0527785 0)
(-0.187471 -0.00615782 0)
(-0.155753 -0.0027081 0)
(-0.13696 0.000539495 0)
(-0.122628 -0.000716512 0)
(-0.110113 0.000266093 0)
(-0.0986277 -0.000192792 0)
(-0.0879205 6.34334e-05 0)
(-0.077917 -2.73139e-05 0)
(-0.0685801 1.10425e-05 0)
(-0.059875 -4.22729e-06 0)
(-0.0517614 1.59576e-06 0)
(-0.0441958 -5.84104e-07 0)
(-0.0371339 2.07324e-07 0)
(-0.0305334 -7.15602e-08 0)
(-0.0243555 2.41055e-08 0)
(-0.0185656 -8.01151e-09 0)
(-0.0131332 2.63202e-09 0)
(-0.00803239 -7.26807e-10 0)
(-0.00324091 1.11345e-10 0)
(0.00125987 -1.54769e-11 0)
(0.00548543 5.59511e-12 0)
(0.00944839 8.40505e-13 0)
(0.0131588 -9.16501e-14 0)
(0.0166244 -2.8845e-14 0)
(0.0198508 -9.47106e-14 0)
(0.0228416 3.83812e-14 0)
(0.0255985 5.45974e-14 0)
(0.0281213 -5.41182e-14 0)
(0.0304083 5.56513e-14 0)
(0.0324559 -6.7148e-15 0)
(0.0342589 -1.11402e-13 0)
(0.0358106 9.34831e-14 0)
(0.037103 7.22314e-14 0)
(0.0381268 1.4838e-14 0)
(0.0388718 1.00034e-13 0)
(0.0393274 1.05618e-13 0)
(0.0394835 2.18703e-13 0)
(0.0393311 -1.43426e-14 0)
(0.0388638 -1.59788e-13 0)
(0.0380795 -6.06955e-14 0)
(0.0369821 -5.93259e-14 0)
(0.0355837 -7.87824e-14 0)
(0.0339066 -7.53738e-14 0)
(0.0319842 1.00149e-13 0)
(0.0298615 2.70964e-13 0)
(0.0275937 2.14694e-13 0)
(0.0252424 -1.06431e-13 0)
(0.0228712 -1.50202e-13 0)
(0.0205398 -5.63681e-14 0)
(0.0182994 4.57673e-14 0)
(0.0161884 -3.85381e-14 0)
(0.0142319 -4.71162e-13 0)
(0.012442 -1.7762e-13 0)
(0.01082 4.10336e-13 0)
(0.00935938 2.10534e-13 0)
(0.00804911 -1.82262e-14 0)
(0.00687555 -3.08461e-15 0)
(0.00582457 -1.30288e-14 0)
(0.0048826 1.68087e-14 0)
(0.00403729 3.6937e-14 0)
(0.00327773 3.16734e-14 0)
(0.00259455 -2.81585e-14 0)
(0.00197975 -4.33305e-14 0)
(0.00142653 -1.03452e-14 0)
(0.000929159 2.76411e-14 0)
(0.000482741 4.5195e-14 0)
(8.30927e-05 2.63442e-14 0)
(-0.000273402 -2.02143e-14 0)
(-0.000589898 -4.01747e-15 0)
(-0.000869175 -1.95345e-15 0)
(-0.00111372 -4.57404e-14 0)
(-0.00132576 -1.43628e-14 0)
(-0.00150734 8.66756e-14 0)
(-0.00166036 5.71899e-14 0)
(-0.00178658 -3.91389e-14 0)
(-0.00188767 -2.38134e-14 0)
(-0.00196525 2.50676e-14 0)
(-0.00202086 6.62945e-14 0)
(-0.00205603 2.47723e-14 0)
(-0.00207226 7.5701e-14 0)
(-0.00207105 1.53029e-13 0)
(-0.00205388 -9.11259e-15 0)
(-0.00202225 -1.5992e-13 0)
(-0.00197765 -7.5938e-14 0)
(-0.00192156 3.98039e-14 0)
(-0.00185546 2.39592e-15 0)
(-0.00178081 -2.40619e-14 0)
(-0.00169903 -3.54553e-14 0)
(-0.00161153 -4.93218e-14 0)
(-0.00151962 1.21094e-14 0)
(-0.00142459 4.92516e-14 0)
(-0.00132763 3.67802e-15 0)
(-0.00122985 -1.12518e-14 0)
(-0.00113226 2.179e-16 0)
(-0.00103577 2.44132e-14 0)
(-0.000941207 5.0074e-15 0)
(-0.000849267 -3.00818e-14 0)
(-0.000760555 -2.88501e-14 0)
(-0.000675573 1.7124e-14 0)
(-0.000594725 3.25597e-14 0)
(-0.000518327 3.57899e-14 0)
(-0.000446607 8.27556e-16 0)
(-0.000379721 -1.01225e-14 0)
(-0.000317751 -1.96237e-14 0)
(-0.000260721 -1.85304e-14 0)
(-0.0002086 1.22789e-14 0)
(-0.000161307 -1.14872e-14 0)
(-0.000118725 3.49947e-14 0)
(-8.06993e-05 2.53163e-14 0)
(-4.70481e-05 1.25701e-14 0)
(-1.75661e-05 3.46273e-14 0)
(7.97037e-06 -9.68927e-15 0)
(2.97991e-05 -4.34123e-14 0)
(4.81679e-05 1.69736e-14 0)
(6.33308e-05 2.17363e-14 0)
(7.55451e-05 -4.6121e-14 0)
(8.50681e-05 2.29315e-14 0)
(9.21545e-05 2.17267e-14 0)
(9.70541e-05 -2.08944e-16 0)
(0.00010001 1.14877e-14 0)
(0.000101255 -2.64044e-14 0)
(0.000101014 9.07795e-15 0)
(9.94985e-05 3.04909e-15 0)
(9.69074e-05 2.15351e-14 0)
(9.34264e-05 1.93113e-14 0)
(8.92275e-05 1.50702e-14 0)
(8.44681e-05 2.53178e-14 0)
(7.92911e-05 -6.29014e-14 0)
(7.38252e-05 8.13595e-15 0)
(6.81852e-05 4.20148e-14 0)
(6.2472e-05 -1.16771e-14 0)
(5.67733e-05 -1.96975e-14 0)
(5.11643e-05 -6.09112e-15 0)
(4.57086e-05 5.39792e-14 0)
(4.04583e-05 1.19257e-14 0)
(3.54557e-05 -2.0957e-14 0)
(3.07334e-05 -5.55586e-15 0)
(2.63156e-05 -2.57526e-14 0)
(2.22189e-05 1.51119e-14 0)
(1.84529e-05 2.32252e-14 0)
(1.50212e-05 -1.04546e-14 0)
(1.19223e-05 -8.86094e-15 0)
(9.15016e-06 -1.04634e-14 0)
(6.69506e-06 9.43513e-15 0)
(4.54405e-06 -3.21905e-14 0)
(2.68105e-06 -1.36215e-13 0)
(1.08691e-06 -2.45946e-13 0)
(-2.61073e-07 3.02394e-13 0)
(-1.39283e-06 7.52061e-13 0)
(-2.3336e-06 -3.72048e-13 0)
(-3.08886e-06 -1.77741e-13 0)
(-3.6617e-06 -3.17492e-14 0)
(-4.06218e-06 -1.42854e-14 0)
(-4.30367e-06 2.18152e-14 0)
(-4.40181e-06 1.23982e-14 0)
(-4.37344e-06 8.16128e-15 0)
(-4.23616e-06 -4.42518e-15 0)
(-4.00807e-06 -1.87534e-14 0)
(-3.70736e-06 -1.77391e-15 0)
(-3.352e-06 -8.82247e-17 0)
(-2.95933e-06 5.73953e-15 0)
(-2.54569e-06 -5.13356e-16 0)
(-2.1261e-06 3.05922e-15 0)
(-1.71397e-06 8.22711e-15 0)
(-1.32081e-06 6.0891e-15 0)
(-9.56064e-07 -1.22203e-15 0)
(-6.27001e-07 -3.27025e-15 0)
(-3.38664e-07 -1.04199e-15 0)
(-9.39182e-08 -7.95273e-16 0)
(1.06428e-07 3.58142e-15 0)
(2.63425e-07 2.26768e-15 0)
(3.7972e-07 -2.30344e-15 0)
(4.59248e-07 3.4187e-15 0)
(5.06883e-07 5.06449e-15 0)
(5.2808e-07 9.5404e-16 0)
(5.28518e-07 7.45278e-16 0)
(5.13769e-07 -1.81204e-15 0)
(4.8901e-07 1.63626e-15 0)
(4.58796e-07 1.01905e-15 0)
(4.26895e-07 5.67843e-16 0)
(3.96203e-07 4.73565e-15 0)
(3.68725e-07 6.6625e-16 0)
(3.45626e-07 -7.36136e-16 0)
(3.27336e-07 1.35171e-15 0)
(3.13692e-07 2.88922e-15 0)
(3.041e-07 1.574e-15 0)
(2.97706e-07 -1.80402e-16 0)
(2.93549e-07 1.82682e-15 0)
(2.90687e-07 2.09002e-15 0)
(2.88296e-07 -1.1327e-16 0)
(2.8572e-07 5.00859e-16 0)
(2.82499e-07 1.15424e-15 0)
(2.78351e-07 1.03642e-15 0)
(2.7315e-07 8.95195e-16 0)
(2.66876e-07 4.10114e-16 0)
(2.59578e-07 7.37726e-16 0)
(2.51328e-07 9.7036e-16 0)
(2.42196e-07 4.90214e-16 0)
(2.32233e-07 7.78118e-16 0)
(2.21462e-07 6.97503e-16 0)
(2.09885e-07 6.9439e-16 0)
(1.97484e-07 1.07682e-15 0)
(1.84235e-07 7.86821e-16 0)
(1.70114e-07 8.79865e-16 0)
(1.551e-07 7.14632e-16 0)
(1.39184e-07 6.77336e-16 0)
(1.22366e-07 7.48484e-16 0)
(1.0466e-07 5.91182e-16 0)
(8.60898e-08 6.97277e-16 0)
(6.66961e-08 6.01506e-16 0)
(4.65352e-08 6.16846e-16 0)
(2.56842e-08 7.42579e-16 0)
(4.2466e-09 7.12007e-16 0)
(-1.76417e-08 6.58191e-16 0)
(-3.98029e-08 6.42718e-16 0)
(-6.20067e-08 6.0904e-16 0)
(-8.39551e-08 6.30924e-16 0)
(-1.05263e-07 6.58932e-16 0)
(-1.25432e-07 6.28076e-16 0)
(-1.43813e-07 6.07147e-16 0)
(-1.59565e-07 5.74352e-16 0)
(-1.71585e-07 5.64117e-16 0)
(-1.78455e-07 5.32769e-16 0)
(-1.78403e-07 4.83533e-16 0)
(-1.69418e-07 4.71503e-16 0)
(-1.4983e-07 3.7037e-16 0)
(-1.19879e-07 3.18756e-16 0)
(-8.40477e-08 2.16822e-16 0)
(-5.07718e-08 1.1828e-16 0)
(-2.6733e-08 9.71085e-17 0)
(-1.26324e-08 4.54732e-17 0)
(-5.50418e-09 4.20501e-17 0)
(-2.24875e-09 2.37454e-17 0)
(-8.68403e-10 3.92925e-17 0)
(-3.17925e-10 -3.10962e-17 0)
(-1.10305e-10 9.01743e-17 0)
(-3.71187e-11 -3.80085e-17 0)
(-1.22016e-11 3.59842e-17 0)
(-3.90168e-12 1.72567e-17 0)
(-1.21999e-12 1.86445e-17 0)
(-3.68001e-13 1.68922e-17 0)
(-1.12884e-13 2.09031e-17 0)
(-3.25226e-14 1.45646e-17 0)
(-7.76056e-15 1.66173e-17 0)
(-3.7233e-15 2.32156e-17 0)
(9.00829e-16 1.42283e-17 0)
(-1.81922e-15 2.16817e-17 0)
(1.55966e-15 1.59272e-17 0)
(-2.7054e-16 1.29299e-17 0)
(5.65533e-16 1.88804e-17 0)
(-4.06665e-16 1.67965e-17 0)
(1.76719e-15 1.87247e-17 0)
(-1.60202e-15 1.75528e-17 0)
(1.64104e-15 1.86357e-17 0)
(-2.80057e-15 1.4593e-17 0)
(9.69739e-16 1.64714e-17 0)
(3.51071e-15 2.21186e-17 0)
(-1.98452e-15 1.62921e-17 0)
(1.50616e-15 1.50066e-17 0)
(4.21928e-16 2.14705e-17 0)
(-4.15791e-15 1.74381e-17 0)
(-3.54715e-15 1.59456e-17 0)
(-2.72074e-15 1.7914e-17 0)
(5.36527e-15 1.71295e-17 0)
(1.19113e-15 1.70495e-17 0)
(1.13466e-15 1.5881e-17 0)
(-2.87875e-15 1.87933e-17 0)
(4.98954e-16 1.43149e-17 0)
(2.51808e-15 2.12295e-17 0)
(-9.23838e-16 1.9143e-17 0)
(1.38728e-16 1.14454e-17 0)
(4.71113e-16 2.83451e-17 0)
(1.96212e-15 -4.01287e-17 0)
(-2.35295e-15 1.87879e-16 0)
(4.12812e-16 -3.62528e-16 0)
(1.04674e-15 7.90233e-16 0)
(-5.71072e-15 -1.35463e-15 0)
(8.69801e-16 2.06173e-15 0)
(1.24806e-15 -2.27818e-15 0)
(2.62986e-15 1.23973e-15 0)
(-1.38408e-15 3.29792e-16 0)
(9.03187e-16 -2.98403e-15 0)
(3.53148e-16 1.33972e-14 0)
(1.45454e-15 -1.99055e-14 0)
(-1.31749e-15 6.81619e-14 0)
(-9.95672e-16 1.03174e-13 0)
)
;

boundaryField
{
    inlet
    {
        type            cyclic;
    }
    outlet
    {
        type            cyclic;
    }
    top
    {
        type            symmetryPlane;
    }
    bottom
    {
        type            zeroGradient;
    }
    frontAndBackPlanes
    {
        type            empty;
    }
}


// ************************************************************************* //
