/*--------------------------------*- C++ -*----------------------------------*\
| =========                 |                                                 |
| \\      /  F ield         | OpenFOAM: The Open Source CFD Toolbox           |
|  \\    /   O peration     | Version:  2.4.0                                 |
|   \\  /    A nd           | Web:      www.OpenFOAM.org                      |
|    \\/     M anipulation  |                                                 |
\*---------------------------------------------------------------------------*/
FoamFile
{
    version     2.0;
    format      ascii;
    class       volScalarField;
    location    "250";
    object      epsilon;
}
// * * * * * * * * * * * * * * * * * * * * * * * * * * * * * * * * * * * * * //

dimensions      [0 2 -3 0 0 0 0];

internalField   nonuniform List<scalar> 
438
(
1e-15
1e-15
1e-15
1e-15
1e-15
1e-15
1e-15
1e-15
1e-15
1e-15
1e-15
1e-15
1e-15
1e-15
1e-15
1e-15
1e-15
1e-15
1e-15
1e-15
1e-15
1e-15
1e-15
1e-15
1e-15
1e-15
1e-15
1e-15
1e-15
1e-15
1e-15
1e-15
1e-15
1e-15
1e-15
1e-15
1e-15
1e-15
1e-15
1e-15
1e-15
1e-15
1e-15
1e-15
1e-15
1e-15
1e-15
1e-15
1e-15
1e-15
1e-15
1e-15
1e-15
1e-15
1e-15
1e-15
1e-15
1e-15
1e-15
1e-15
1e-15
1e-15
1e-15
1e-15
1e-15
1e-15
1e-15
1e-15
1e-15
1e-15
1e-15
1e-15
1e-15
1e-15
1e-15
1e-15
1e-15
1e-15
1e-15
1e-15
1e-15
1e-15
1e-15
1e-15
1e-15
1e-15
1e-15
1e-15
1e-15
1e-15
1e-15
1e-15
1e-15
1e-15
1e-15
1e-15
1e-15
1e-15
1e-15
1e-15
1e-15
1e-15
1e-15
1e-15
1e-15
1e-15
1e-15
1e-15
1e-15
1e-15
1e-15
1e-15
1e-15
1e-15
1e-15
1e-15
1e-15
1e-15
1e-15
1e-15
1e-15
1e-15
1e-15
1e-15
1e-15
1e-15
1e-15
1e-15
1e-15
1e-15
1e-15
1e-15
1e-15
1e-15
1e-15
1e-15
1e-15
1e-15
1e-15
1e-15
1e-15
1e-15
2.09631e-15
1.78651e-14
3.39166e-13
8.34386e-12
2.60334e-10
1.02351e-08
5.02868e-07
3.04275e-05
0.00188613
0.00536261
0.00321575
0.00258923
0.00242522
0.0024315
0.0025117
0.00262485
0.00274999
0.00287503
0.00299256
0.00309796
0.0031884
0.00326223
0.00331862
0.00335733
0.00337853
0.00338267
0.00337038
0.00334248
0.00329985
0.00324345
0.00317429
0.0030934
0.00300185
0.00290072
0.00279107
0.002674
0.00255061
0.00242199
0.00228923
0.00215345
0.00201574
0.00187719
0.0017389
0.00160196
0.00146741
0.0013363
0.00120963
0.00108832
0.000973238
0.000865147
0.000764687
0.000672351
0.000588459
0.000513148
0.000446352
0.000387814
0.000337097
0.000293619
0.00025669
0.000225562
0.000199472
0.000177682
0.000159511
0.000144344
0.00013165
0.000120974
0.000111936
0.000104222
9.75738e-05
9.17823e-05
8.66777e-05
8.21232e-05
7.80089e-05
7.42471e-05
7.07678e-05
6.75158e-05
6.44476e-05
6.15297e-05
5.87364e-05
5.60482e-05
5.34512e-05
5.09352e-05
4.84937e-05
4.61227e-05
4.382e-05
4.15852e-05
3.94187e-05
3.73217e-05
3.5296e-05
3.33432e-05
3.14653e-05
2.96637e-05
2.79398e-05
2.62945e-05
2.47283e-05
2.3241e-05
2.18323e-05
2.0501e-05
1.92457e-05
1.80644e-05
1.6955e-05
1.59148e-05
1.4941e-05
1.40304e-05
1.31799e-05
1.23862e-05
1.1646e-05
1.0956e-05
1.03128e-05
9.71337e-06
9.15457e-06
8.63349e-06
8.14735e-06
7.69353e-06
7.26958e-06
6.87321e-06
6.50231e-06
6.15493e-06
5.82926e-06
5.52366e-06
5.23662e-06
4.96676e-06
4.71283e-06
4.47369e-06
4.24828e-06
4.03567e-06
3.83498e-06
3.64542e-06
3.46628e-06
3.29688e-06
3.13661e-06
2.98493e-06
2.84131e-06
2.70527e-06
2.57637e-06
2.45421e-06
2.33839e-06
2.22856e-06
2.12438e-06
2.02555e-06
1.93177e-06
1.84276e-06
1.75826e-06
1.67802e-06
1.60182e-06
1.52944e-06
1.46067e-06
1.39532e-06
1.33321e-06
1.27416e-06
1.218e-06
1.16459e-06
1.11378e-06
1.06543e-06
1.01941e-06
9.75594e-07
9.33874e-07
8.94137e-07
8.56112e-07
8.19294e-07
7.83408e-07
7.48464e-07
7.14468e-07
6.81427e-07
6.49345e-07
6.18223e-07
5.88064e-07
5.58866e-07
5.30628e-07
5.03346e-07
4.77015e-07
4.51628e-07
4.27178e-07
4.03655e-07
3.81049e-07
3.59348e-07
3.3854e-07
3.18609e-07
2.99541e-07
2.81319e-07
2.63926e-07
2.47344e-07
2.31553e-07
2.16535e-07
2.02267e-07
1.8873e-07
1.75901e-07
1.63759e-07
1.52281e-07
1.41443e-07
1.31224e-07
1.216e-07
1.12547e-07
1.04043e-07
9.6065e-08
8.85895e-08
8.15941e-08
7.50564e-08
6.89543e-08
6.32663e-08
5.7971e-08
5.30477e-08
4.84763e-08
4.42371e-08
4.0311e-08
3.66795e-08
3.33248e-08
3.02298e-08
2.73779e-08
2.47533e-08
2.23409e-08
2.01262e-08
1.80954e-08
1.62356e-08
1.45343e-08
1.29797e-08
1.1561e-08
1.02676e-08
9.08991e-09
8.01875e-09
7.04567e-09
6.16279e-09
5.36282e-09
4.63907e-09
3.98541e-09
3.39628e-09
2.86667e-09
2.39213e-09
1.96877e-09
1.59327e-09
1.26288e-09
9.75425e-10
7.29284e-10
5.23337e-10
3.56764e-10
2.28599e-10
1.3686e-10
7.73412e-11
4.30221e-11
2.5457e-11
1.73404e-11
1.38782e-11
1.24923e-11
1.19669e-11
1.17775e-11
1.17125e-11
1.16916e-11
1.16851e-11
1.1683e-11
1.16825e-11
1.16823e-11
1.16823e-11
1.16822e-11
1.16822e-11
1.16822e-11
1.16822e-11
1.16822e-11
1.16822e-11
1.16822e-11
1.16822e-11
1.16822e-11
1.16822e-11
1.16822e-11
1.16822e-11
1.16822e-11
1.16822e-11
1.16822e-11
1.16822e-11
1.16822e-11
1.16822e-11
1.16822e-11
1.16822e-11
1.16822e-11
1.16822e-11
1.16822e-11
1.16822e-11
1.16822e-11
1.16822e-11
1.16822e-11
1.16822e-11
1.16822e-11
1.16822e-11
1.16822e-11
1.16822e-11
1.16822e-11
1.16822e-11
1.16822e-11
1.16822e-11
1.16822e-11
1.16822e-11
1.16822e-11
1.16822e-11
1.16822e-11
1.16822e-11
1.16822e-11
1.16822e-11
)
;

boundaryField
{
    inlet
    {
        type            cyclic;
    }
    outlet
    {
        type            cyclic;
    }
    top
    {
        type            symmetryPlane;
    }
    bottom
    {
        type            zeroGradient;
    }
    frontAndBackPlanes
    {
        type            empty;
    }
}


// ************************************************************************* //
