/*--------------------------------*- C++ -*----------------------------------*\
| =========                 |                                                 |
| \\      /  F ield         | OpenFOAM: The Open Source CFD Toolbox           |
|  \\    /   O peration     | Version:  2.4.0                                 |
|   \\  /    A nd           | Web:      www.OpenFOAM.org                      |
|    \\/     M anipulation  |                                                 |
\*---------------------------------------------------------------------------*/
FoamFile
{
    version     2.0;
    format      ascii;
    class       volScalarField;
    location    "250";
    object      k;
}
// * * * * * * * * * * * * * * * * * * * * * * * * * * * * * * * * * * * * * //

dimensions      [0 2 -2 0 0 0 0];

internalField   nonuniform List<scalar> 
438
(
1e-15
1e-15
1e-15
1e-15
1e-15
1e-15
1e-15
1e-15
1e-15
1e-15
1e-15
1e-15
1e-15
1e-15
1e-15
1e-15
1e-15
1e-15
1e-15
1e-15
1e-15
1e-15
1e-15
1e-15
1e-15
1e-15
1e-15
1e-15
1e-15
1e-15
1e-15
1e-15
1e-15
1e-15
1e-15
1e-15
1e-15
1e-15
1e-15
1e-15
1e-15
1e-15
1e-15
1e-15
1e-15
1e-15
1e-15
1e-15
1e-15
1e-15
1e-15
1e-15
1e-15
1e-15
1e-15
1e-15
1e-15
1e-15
1e-15
1e-15
1e-15
1e-15
1e-15
1e-15
1e-15
1e-15
1e-15
1e-15
1e-15
1e-15
1e-15
1e-15
1e-15
1e-15
1e-15
1e-15
1e-15
1e-15
1e-15
1e-15
1e-15
1e-15
1e-15
1e-15
1e-15
1e-15
1e-15
1e-15
1e-15
1e-15
1e-15
1e-15
1e-15
1e-15
1e-15
1e-15
1e-15
1e-15
1e-15
1e-15
1e-15
1e-15
1e-15
1e-15
1e-15
1e-15
1e-15
1e-15
1e-15
1e-15
1e-15
1e-15
1e-15
1e-15
1e-15
1e-15
1e-15
1e-15
1e-15
1e-15
1e-15
1e-15
1e-15
1e-15
1e-15
1e-15
1e-15
1e-15
1e-15
1e-15
1e-15
1e-15
1e-15
1e-15
1e-15
1e-15
1e-15
1e-15
1e-15
1e-15
1e-15
1e-15
1e-15
3.51532e-15
5.18438e-14
1.00479e-12
2.47624e-11
7.71644e-10
3.01892e-08
1.45609e-06
9.2487e-05
0.000504201
0.000647064
0.000757412
0.000855267
0.000945837
0.00103073
0.00111014
0.0011838
0.00125132
0.00131234
0.00136662
0.00141401
0.00145447
0.00148803
0.00151479
0.0015349
0.00154854
0.00155594
0.00155732
0.00155295
0.00154307
0.00152797
0.00150792
0.00148322
0.00145415
0.00142101
0.00138412
0.00134379
0.00130033
0.00125409
0.00120541
0.00115464
0.00110214
0.00104831
0.000993539
0.000938233
0.000882816
0.00082772
0.000773385
0.000720252
0.000668755
0.000619311
0.00057231
0.000528096
0.000486953
0.000449092
0.000414634
0.000383609
0.000355951
0.000331512
0.000310072
0.00029136
0.000275081
0.000260928
0.000248603
0.000237829
0.000228352
0.000219951
0.000212432
0.00020563
0.000199407
0.000193646
0.000188251
0.000183143
0.000178256
0.000173539
0.000168951
0.00016446
0.00016004
0.000155675
0.00015135
0.00014706
0.000142798
0.000138565
0.000134361
0.000130191
0.00012606
0.000121973
0.000117937
0.000113961
0.000110052
0.000106217
0.000102463
9.87983e-05
9.5228e-05
9.17577e-05
8.83921e-05
8.51349e-05
8.19887e-05
7.89554e-05
7.6036e-05
7.32305e-05
7.05382e-05
6.79575e-05
6.54863e-05
6.31218e-05
6.08608e-05
5.86998e-05
5.66349e-05
5.4662e-05
5.27769e-05
5.09754e-05
4.92533e-05
4.76064e-05
4.60306e-05
4.4522e-05
4.30769e-05
4.16917e-05
4.03631e-05
3.90879e-05
3.78631e-05
3.66861e-05
3.55542e-05
3.44652e-05
3.34167e-05
3.24068e-05
3.14335e-05
3.04953e-05
2.95903e-05
2.87172e-05
2.78746e-05
2.7061e-05
2.62754e-05
2.55166e-05
2.47835e-05
2.4075e-05
2.33903e-05
2.27284e-05
2.20885e-05
2.14697e-05
2.08712e-05
2.02923e-05
1.97322e-05
1.91903e-05
1.86659e-05
1.81584e-05
1.76671e-05
1.71915e-05
1.6731e-05
1.62851e-05
1.58532e-05
1.54348e-05
1.50295e-05
1.46368e-05
1.42562e-05
1.38873e-05
1.35297e-05
1.3183e-05
1.28469e-05
1.25194e-05
1.21967e-05
1.18763e-05
1.15585e-05
1.12435e-05
1.09314e-05
1.06223e-05
1.03165e-05
1.00141e-05
9.71527e-06
9.42012e-06
9.1288e-06
8.84147e-06
8.55825e-06
8.27928e-06
8.00468e-06
7.73455e-06
7.46903e-06
7.2082e-06
6.95217e-06
6.70103e-06
6.45486e-06
6.21374e-06
5.97774e-06
5.74692e-06
5.52133e-06
5.30103e-06
5.08604e-06
4.8764e-06
4.67214e-06
4.47326e-06
4.27977e-06
4.09167e-06
3.90895e-06
3.73159e-06
3.55956e-06
3.39283e-06
3.23136e-06
3.0751e-06
2.92398e-06
2.77796e-06
2.63695e-06
2.50088e-06
2.36968e-06
2.24324e-06
2.12148e-06
2.0043e-06
1.89159e-06
1.78325e-06
1.67917e-06
1.57922e-06
1.48329e-06
1.39125e-06
1.30299e-06
1.21837e-06
1.13727e-06
1.05956e-06
9.85116e-07
9.13809e-07
8.45514e-07
7.8011e-07
7.17477e-07
6.57502e-07
6.00075e-07
5.45098e-07
4.9248e-07
4.42143e-07
3.94023e-07
3.48077e-07
3.04286e-07
2.6266e-07
2.23251e-07
1.86159e-07
1.51553e-07
1.19683e-07
9.09076e-08
6.56994e-08
4.46277e-08
2.82327e-08
1.67281e-08
9.64185e-09
5.83224e-09
4.01131e-09
3.21616e-09
2.89216e-09
2.76748e-09
2.72195e-09
2.70613e-09
2.70096e-09
2.69933e-09
2.69882e-09
2.69867e-09
2.69863e-09
2.69861e-09
2.69861e-09
2.69861e-09
2.69861e-09
2.69861e-09
2.69861e-09
2.69861e-09
2.69861e-09
2.69861e-09
2.69861e-09
2.69861e-09
2.69861e-09
2.69861e-09
2.69861e-09
2.69861e-09
2.69861e-09
2.69861e-09
2.69861e-09
2.69861e-09
2.6986e-09
2.6986e-09
2.6986e-09
2.6986e-09
2.6986e-09
2.6986e-09
2.6986e-09
2.6986e-09
2.6986e-09
2.6986e-09
2.6986e-09
2.6986e-09
2.6986e-09
2.6986e-09
2.6986e-09
2.6986e-09
2.6986e-09
2.6986e-09
2.6986e-09
2.6986e-09
2.6986e-09
2.6986e-09
2.6986e-09
2.6986e-09
2.6986e-09
2.6986e-09
)
;

boundaryField
{
    inlet
    {
        type            cyclic;
    }
    outlet
    {
        type            cyclic;
    }
    top
    {
        type            symmetryPlane;
    }
    bottom
    {
        type            zeroGradient;
    }
    frontAndBackPlanes
    {
        type            empty;
    }
}


// ************************************************************************* //
