/*--------------------------------*- C++ -*----------------------------------*\
| =========                 |                                                 |
| \\      /  F ield         | OpenFOAM: The Open Source CFD Toolbox           |
|  \\    /   O peration     | Version:  2.4.0                                 |
|   \\  /    A nd           | Web:      www.OpenFOAM.org                      |
|    \\/     M anipulation  |                                                 |
\*---------------------------------------------------------------------------*/
FoamFile
{
    version     2.0;
    format      ascii;
    class       volScalarField;
    location    "250";
    object      mua;
}
// * * * * * * * * * * * * * * * * * * * * * * * * * * * * * * * * * * * * * //

dimensions      [1 -1 -1 0 0 0 0];

internalField   nonuniform List<scalar> 
438
(
1.58967e-07
1.58925e-07
1.58886e-07
1.58846e-07
1.58806e-07
1.58764e-07
1.58722e-07
1.5868e-07
1.58639e-07
1.58597e-07
1.58553e-07
1.5851e-07
1.58468e-07
1.58423e-07
1.5838e-07
1.58337e-07
1.58292e-07
1.58247e-07
1.58202e-07
1.58157e-07
1.58111e-07
1.58064e-07
1.58018e-07
1.57972e-07
1.57925e-07
1.57877e-07
1.57829e-07
1.57781e-07
1.57732e-07
1.57684e-07
1.57634e-07
1.57585e-07
1.57534e-07
1.57484e-07
1.57433e-07
1.57381e-07
1.5733e-07
1.57277e-07
1.57225e-07
1.57171e-07
1.57117e-07
1.57063e-07
1.57009e-07
1.56953e-07
1.56897e-07
1.56842e-07
1.56788e-07
1.56732e-07
1.56677e-07
1.5662e-07
1.56561e-07
1.565e-07
1.56435e-07
1.56367e-07
1.56296e-07
1.56228e-07
1.56163e-07
1.5611e-07
1.56064e-07
1.56027e-07
1.55997e-07
1.55968e-07
1.55941e-07
1.55914e-07
1.55886e-07
1.55859e-07
1.55832e-07
1.55805e-07
1.55776e-07
1.55749e-07
1.55722e-07
1.55695e-07
1.55668e-07
1.55639e-07
1.55612e-07
1.55585e-07
1.55556e-07
1.55529e-07
1.55502e-07
1.55475e-07
1.55446e-07
1.55419e-07
1.55392e-07
1.55363e-07
1.55336e-07
1.55307e-07
1.5528e-07
1.55253e-07
1.55225e-07
1.55197e-07
1.55169e-07
1.55142e-07
1.55113e-07
1.55085e-07
1.55058e-07
1.55029e-07
1.55e-07
1.54973e-07
1.54943e-07
1.54916e-07
1.54888e-07
1.54858e-07
1.54827e-07
1.54797e-07
1.54767e-07
1.54737e-07
1.54704e-07
1.54671e-07
1.54636e-07
1.546e-07
1.5456e-07
1.54518e-07
1.54473e-07
1.54421e-07
1.54363e-07
1.54297e-07
1.54221e-07
1.54132e-07
1.54024e-07
1.53895e-07
1.53739e-07
1.53548e-07
1.5331e-07
1.53012e-07
1.52635e-07
1.52155e-07
1.51539e-07
1.5075e-07
1.49735e-07
1.48418e-07
1.46702e-07
1.45369e-07
1.45312e-07
1.45524e-07
1.45273e-07
1.44719e-07
1.44274e-07
1.43879e-07
1.43418e-07
1.42895e-07
1.42334e-07
1.41731e-07
1.41057e-07
2.13892e-07
8.13173e-07
3.54161e-06
1.74839e-05
0.000111893
0.00102783
0.00596141
0.000362108
1.49921e-05
2.18136e-06
4.0032e-07
1.47428e-07
2.61678e-08
2.24702e-08
9.17008e-10
1.89692e-17
6.61939e-34
2.35224e-45
5.30804e-57
9.28227e-69
1.46712e-80
2.0978e-92
2.37604e-104
3.00691e-116
4.02285e-120
2.35849e-130
1.80794e-134
2.4066e-136
2.88881e-138
3.41783e-140
3.02789e-142
1.98383e-144
1.15682e-154
3.22245e-165
6.52083e-176
1.00509e-186
1.40175e-197
2.46045e-200
3.09776e-202
3.72663e-204
3.36815e-206
2.22485e-208
1.44269e-218
4.6996e-229
1.04591e-239
1.78046e-250
2.3975e-261
2.92017e-272
2.80662e-283
2.51742e-294
2.01713e-305
1.34385e-316
0
0
0
0
0
0
0
0
0
0
0
0
0
0
0
0
0
0
0
0
0
0
0
0
0
0
0
0
0
0
0
0
0
0
0
0
0
0
0
0
0
0
0
0
0
0
0
0
0
0
0
0
0
0
0
0
0
0
0
0
0
0
0
0
0
0
0
0
0
0
0
0
0
0
0
0
0
0
0
0
0
0
0
0
0
0
0
0
0
0
0
0
0
0
0
0
0
0
0
0
0
0
0
0
0
0
0
0
0
0
0
0
0
0
0
0
0
0
0
0
0
0
0
0
0
0
0
0
0
0
0
0
0
0
0
0
0
0
0
0
0
0
0
0
0
0
0
0
0
0
0
0
0
0
0
0
0
0
0
0
0
0
0
0
0
0
0
0
0
0
0
0
0
0
0
0
0
0
0
0
0
0
0
0
0
0
0
0
0
0
0
0
0
0
0
0
0
0
0
0
0
0
0
0
0
0
0
0
0
0
0
0
0
0
0
0
0
0
0
0
0
0
0
0
0
0
0
0
0
0
0
0
0
0
0
0
0
0
0
0
0
0
0
)
;

boundaryField
{
    inlet
    {
        type            cyclic;
    }
    outlet
    {
        type            cyclic;
    }
    top
    {
        type            symmetryPlane;
    }
    bottom
    {
        type            calculated;
        value           uniform 1.58967e-07;
    }
    frontAndBackPlanes
    {
        type            empty;
    }
}


// ************************************************************************* //
