/*--------------------------------*- C++ -*----------------------------------*\
| =========                 |                                                 |
| \\      /  F ield         | OpenFOAM: The Open Source CFD Toolbox           |
|  \\    /   O peration     | Version:  2.4.0                                 |
|   \\  /    A nd           | Web:      www.OpenFOAM.org                      |
|    \\/     M anipulation  |                                                 |
\*---------------------------------------------------------------------------*/
FoamFile
{
    version     2.0;
    format      ascii;
    class       volScalarField;
    location    "250";
    object      nut;
}
// * * * * * * * * * * * * * * * * * * * * * * * * * * * * * * * * * * * * * //

dimensions      [0 2 -1 0 0 0 0];

internalField   nonuniform List<scalar> 
438
(
9e-17
9e-17
9e-17
9e-17
9e-17
9e-17
9e-17
9e-17
9e-17
9e-17
9e-17
9e-17
9e-17
9e-17
9e-17
9e-17
9e-17
9e-17
9e-17
9e-17
9e-17
9e-17
9e-17
9e-17
9e-17
9e-17
9e-17
9e-17
9e-17
9e-17
9e-17
9e-17
9e-17
9e-17
9e-17
9e-17
9e-17
9e-17
9e-17
9e-17
9e-17
9e-17
9e-17
9e-17
9e-17
9e-17
9e-17
9e-17
9e-17
9e-17
9e-17
9e-17
9e-17
9e-17
9e-17
9e-17
9e-17
9e-17
9e-17
9e-17
9e-17
9e-17
9e-17
9e-17
9e-17
9e-17
9e-17
9e-17
9e-17
9e-17
9e-17
9e-17
9e-17
9e-17
9e-17
9e-17
9e-17
9e-17
9e-17
9e-17
9e-17
9e-17
9e-17
9e-17
9e-17
9e-17
9e-17
9e-17
9e-17
9e-17
9e-17
9e-17
9e-17
9e-17
9e-17
9e-17
9e-17
9e-17
9e-17
9e-17
9e-17
9e-17
9e-17
9e-17
9e-17
9e-17
9e-17
9e-17
9e-17
9e-17
9e-17
9e-17
9e-17
9e-17
9e-17
9e-17
9e-17
9e-17
9e-17
9e-17
9e-17
9e-17
9e-17
9e-17
9e-17
9e-17
9e-17
9e-17
9e-17
9e-17
9e-17
9e-17
9e-17
9e-17
9e-17
9e-17
9e-17
9e-17
9e-17
9e-17
9e-17
9e-17
4.29327e-17
6.22539e-17
7.13221e-16
1.089e-14
2.11981e-13
5.23583e-12
1.63114e-10
6.27119e-09
4.08161e-07
4.26652e-06
1.1718e-05
1.99405e-05
2.71453e-05
3.31132e-05
3.80685e-05
4.22564e-05
4.58637e-05
4.90158e-05
5.17957e-05
5.42578e-05
5.64385e-05
5.83631e-05
6.00493e-05
6.15109e-05
6.27586e-05
6.38014e-05
6.46471e-05
6.53027e-05
6.5775e-05
6.60703e-05
6.6195e-05
6.61552e-05
6.59573e-05
6.56077e-05
6.51132e-05
6.44808e-05
6.37178e-05
6.2832e-05
6.18318e-05
6.07262e-05
5.95249e-05
5.82385e-05
5.68786e-05
5.54577e-05
5.39898e-05
5.24901e-05
5.0975e-05
4.94627e-05
4.79725e-05
4.6525e-05
4.51416e-05
4.3844e-05
4.26532e-05
4.15887e-05
4.06664e-05
3.98978e-05
3.92884e-05
3.88365e-05
3.8533e-05
3.8362e-05
3.83021e-05
3.83283e-05
3.84145e-05
3.85352e-05
3.86679e-05
3.87937e-05
3.88976e-05
3.89693e-05
3.90017e-05
3.89911e-05
3.89362e-05
3.88376e-05
3.8697e-05
3.85168e-05
3.83003e-05
3.80504e-05
3.77706e-05
3.74641e-05
3.71339e-05
3.6783e-05
3.64143e-05
3.60304e-05
3.56339e-05
3.52271e-05
3.48124e-05
3.43919e-05
3.39676e-05
3.35415e-05
3.31154e-05
3.2691e-05
3.22698e-05
3.18532e-05
3.14426e-05
3.10389e-05
3.06432e-05
3.02562e-05
2.98785e-05
2.95104e-05
2.91523e-05
2.88043e-05
2.84662e-05
2.81378e-05
2.78188e-05
2.75089e-05
2.72075e-05
2.6914e-05
2.6628e-05
2.63487e-05
2.60757e-05
2.58084e-05
2.55462e-05
2.52887e-05
2.50355e-05
2.47862e-05
2.45404e-05
2.4298e-05
2.40588e-05
2.38225e-05
2.35892e-05
2.33587e-05
2.3131e-05
2.29061e-05
2.26841e-05
2.24648e-05
2.22485e-05
2.2035e-05
2.18245e-05
2.16169e-05
2.14123e-05
2.12107e-05
2.10121e-05
2.08165e-05
2.06239e-05
2.04342e-05
2.02474e-05
2.00634e-05
1.98822e-05
1.97038e-05
1.95281e-05
1.9355e-05
1.91844e-05
1.90163e-05
1.88506e-05
1.86872e-05
1.85261e-05
1.83672e-05
1.82104e-05
1.80557e-05
1.7903e-05
1.77523e-05
1.76035e-05
1.74566e-05
1.73115e-05
1.71682e-05
1.70267e-05
1.68869e-05
1.67488e-05
1.66124e-05
1.64771e-05
1.63412e-05
1.62038e-05
1.60648e-05
1.59243e-05
1.57824e-05
1.56389e-05
1.5494e-05
1.53477e-05
1.52e-05
1.5051e-05
1.49006e-05
1.47489e-05
1.45959e-05
1.44417e-05
1.42863e-05
1.41297e-05
1.39719e-05
1.3813e-05
1.36529e-05
1.34918e-05
1.33296e-05
1.31664e-05
1.30022e-05
1.28369e-05
1.26708e-05
1.25036e-05
1.23356e-05
1.21667e-05
1.19969e-05
1.18262e-05
1.16547e-05
1.14824e-05
1.13092e-05
1.11352e-05
1.09603e-05
1.07846e-05
1.06079e-05
1.04304e-05
1.02519e-05
1.00724e-05
9.89175e-06
9.70998e-06
9.52694e-06
9.34252e-06
9.1566e-06
8.96902e-06
8.77961e-06
8.58818e-06
8.39451e-06
8.19835e-06
7.99943e-06
7.79745e-06
7.59208e-06
7.38295e-06
7.16969e-06
6.95185e-06
6.72901e-06
6.50068e-06
6.26635e-06
6.02552e-06
5.77766e-06
5.52222e-06
5.25868e-06
4.98654e-06
4.70532e-06
4.41463e-06
4.11417e-06
3.80379e-06
3.48355e-06
3.15382e-06
2.81539e-06
2.46973e-06
2.11923e-06
1.76772e-06
1.42122e-06
1.08889e-06
7.84112e-07
5.24167e-07
3.25631e-07
1.94478e-07
1.20256e-07
8.35134e-08
6.70784e-08
6.02619e-08
5.76012e-08
5.66173e-08
5.62714e-08
5.61572e-08
5.61206e-08
5.61093e-08
5.61057e-08
5.61047e-08
5.61044e-08
5.61046e-08
5.61047e-08
5.61047e-08
5.61047e-08
5.61047e-08
5.61047e-08
5.61047e-08
5.61047e-08
5.61047e-08
5.61047e-08
5.61047e-08
5.61047e-08
5.61047e-08
5.61047e-08
5.61047e-08
5.61047e-08
5.61047e-08
5.61046e-08
5.61044e-08
5.61043e-08
5.61043e-08
5.61043e-08
5.61043e-08
5.61043e-08
5.61043e-08
5.61043e-08
5.61043e-08
5.61043e-08
5.61043e-08
5.61043e-08
5.61043e-08
5.61043e-08
5.61043e-08
5.61043e-08
5.61043e-08
5.61043e-08
5.61043e-08
5.61043e-08
5.61043e-08
5.61043e-08
5.61043e-08
5.61043e-08
5.61043e-08
5.61043e-08
)
;

boundaryField
{
    inlet
    {
        type            cyclic;
    }
    outlet
    {
        type            cyclic;
    }
    top
    {
        type            symmetryPlane;
    }
    bottom
    {
        type            fixedValue;
        value           uniform 0;
    }
    frontAndBackPlanes
    {
        type            empty;
    }
}


// ************************************************************************* //
