/*--------------------------------*- C++ -*----------------------------------*\
| =========                 |                                                 |
| \\      /  F ield         | OpenFOAM: The Open Source CFD Toolbox           |
|  \\    /   O peration     | Version:  2.4.0                                 |
|   \\  /    A nd           | Web:      www.OpenFOAM.org                      |
|    \\/     M anipulation  |                                                 |
\*---------------------------------------------------------------------------*/
FoamFile
{
    version     2.0;
    format      ascii;
    class       volScalarField;
    location    "250";
    object      p;
}
// * * * * * * * * * * * * * * * * * * * * * * * * * * * * * * * * * * * * * //

dimensions      [1 -1 -2 0 0 0 0];

internalField   nonuniform List<scalar> 
438
(
4883.1
4878.19
4873.29
4868.38
4863.48
4858.57
4853.67
4848.76
4843.86
4838.95
4834.05
4829.14
4824.24
4819.33
4814.43
4809.52
4804.62
4799.71
4794.81
4789.9
4785
4780.09
4775.19
4770.28
4765.38
4760.47
4755.57
4750.66
4745.76
4740.85
4735.94
4731.04
4726.13
4721.23
4716.32
4711.42
4706.51
4701.61
4696.7
4691.8
4686.89
4681.99
4677.08
4672.18
4667.27
4662.37
4657.46
4652.56
4647.65
4642.75
4637.84
4632.94
4628.03
4623.13
4618.22
4613.32
4608.41
4603.51
4598.6
4593.7
4588.79
4583.88
4578.98
4574.07
4569.17
4564.26
4559.36
4554.45
4549.55
4544.64
4539.74
4534.83
4529.93
4525.02
4520.12
4515.21
4510.31
4505.4
4500.5
4495.59
4490.69
4485.78
4480.88
4475.97
4471.06
4466.16
4461.25
4456.35
4451.44
4446.54
4441.63
4436.73
4431.82
4426.92
4422.01
4417.11
4412.2
4407.3
4402.39
4397.49
4392.58
4387.68
4382.77
4377.87
4372.96
4368.05
4363.15
4358.24
4353.34
4348.43
4343.53
4338.62
4333.72
4328.81
4323.91
4319
4314.1
4309.19
4304.29
4299.38
4294.48
4289.57
4284.67
4279.76
4274.86
4269.95
4265.05
4260.14
4255.24
4250.33
4245.43
4240.52
4235.62
4230.71
4225.81
4220.9
4216
4211.09
4206.18
4201.28
4196.37
4191.47
4186.56
4181.66
4176.75
4171.85
4166.94
4162.04
4157.13
4152.23
4147.21
4141.94
4136.94
4131.96
4126.99
4122.02
4117.06
4112.1
4107.15
4102.2
4097.25
4092.31
4087.37
4082.44
4077.52
4072.59
4067.67
4062.76
4057.85
4052.94
4048.04
4043.14
4038.25
4033.36
4028.47
4023.58
4018.7
4013.82
4008.94
4004.07
3999.19
3994.32
3989.45
3984.58
3979.71
3974.84
3969.97
3965.1
3960.24
3955.37
3950.5
3945.63
3940.75
3935.88
3931.01
3926.13
3921.25
3916.37
3911.48
3906.6
3901.71
3896.82
3891.92
3887.03
3882.13
3877.24
3872.34
3867.44
3862.54
3857.64
3852.74
3847.84
3842.94
3838.04
3833.14
3828.23
3823.33
3818.43
3813.53
3808.63
3803.72
3798.82
3793.92
3789.02
3784.12
3779.21
3774.31
3769.41
3764.51
3759.6
3754.7
3749.8
3744.9
3739.99
3735.09
3730.19
3725.29
3720.38
3715.48
3710.58
3705.67
3700.77
3695.87
3690.97
3686.06
3681.16
3676.26
3671.35
3666.45
3661.54
3656.64
3651.74
3646.83
3641.93
3637.03
3632.12
3627.22
3622.31
3617.41
3612.51
3607.6
3602.7
3597.79
3592.89
3587.98
3583.08
3578.18
3573.27
3568.37
3563.46
3558.56
3553.65
3548.75
3543.84
3538.94
3534.04
3529.13
3524.23
3519.32
3514.42
3509.51
3504.61
3499.7
3494.8
3489.89
3484.99
3480.09
3475.18
3470.28
3465.37
3460.47
3455.56
3450.66
3445.75
3440.85
3435.94
3431.04
3426.13
3421.23
3416.32
3411.4
3406.39
3401.26
3396.01
3390.63
3385.12
3379.47
3373.69
3367.77
3361.71
3355.5
3349.14
3342.63
3335.96
3329.12
3322.12
3314.96
3307.62
3300.1
3292.4
3284.51
3276.43
3268.16
3259.69
3251.01
3242.12
3233.02
3223.7
3214.15
3204.37
3194.35
3184.1
3173.59
3162.83
3151.81
3140.52
3128.96
3117.12
3104.99
3092.57
3079.85
3066.82
3053.48
3039.82
3025.82
3011.48
2996.8
2981.76
2966.36
2950.59
2934.44
2917.89
2900.94
2883.59
2865.81
2847.61
2828.96
2809.86
2790.31
2770.27
2749.76
2728.74
2707.22
2685.18
2662.61
2639.48
2615.8
2591.55
2566.71
2541.27
2515.21
2488.53
2461.19
2433.2
2404.53
2375.17
2345.09
2314.29
2282.74
2250.43
2217.34
2183.45
2148.74
2113.19
2076.78
2039.49
2001.29
1962.17
1922.76
1883.52
1844.28
1805.04
1765.8
1726.56
1687.32
1648.08
1608.84
1569.6
1530.36
1491.12
1451.88
1412.64
1373.4
1334.16
1294.92
1255.68
1216.44
1177.2
1137.96
1098.72
1059.48
1020.24
981
941.76
902.52
863.28
824.04
784.8
745.56
706.32
667.08
627.84
588.6
549.36
510.12
470.88
431.64
392.4
353.16
313.92
274.68
235.44
196.2
156.96
117.72
78.48
39.24
-2.62315e-08
)
;

boundaryField
{
    inlet
    {
        type            cyclic;
    }
    outlet
    {
        type            cyclic;
    }
    top
    {
        type            symmetryPlane;
    }
    bottom
    {
        type            fixedFluxPressure;
        gradient        uniform 0;
        value           uniform 4883.1;
    }
    frontAndBackPlanes
    {
        type            empty;
    }
}


// ************************************************************************* //
