/*--------------------------------*- C++ -*----------------------------------*\
| =========                 |                                                 |
| \\      /  F ield         | OpenFOAM: The Open Source CFD Toolbox           |
|  \\    /   O peration     | Version:  2.4.0                                 |
|   \\  /    A nd           | Web:      www.OpenFOAM.org                      |
|    \\/     M anipulation  |                                                 |
\*---------------------------------------------------------------------------*/
FoamFile
{
    version     2.0;
    format      ascii;
    class       volScalarField;
    location    "250";
    object      pa;
}
// * * * * * * * * * * * * * * * * * * * * * * * * * * * * * * * * * * * * * //

dimensions      [1 -1 -2 0 0 0 0];

internalField   nonuniform List<scalar> 
438
(
4.41907e-11
4.41793e-11
4.41687e-11
4.41577e-11
4.41466e-11
4.41352e-11
4.41237e-11
4.41123e-11
4.41008e-11
4.40894e-11
4.40775e-11
4.40657e-11
4.40542e-11
4.40419e-11
4.403e-11
4.40182e-11
4.40059e-11
4.39936e-11
4.39813e-11
4.3969e-11
4.39563e-11
4.39436e-11
4.39309e-11
4.39182e-11
4.39055e-11
4.38924e-11
4.38792e-11
4.38661e-11
4.38525e-11
4.38394e-11
4.38259e-11
4.38123e-11
4.37984e-11
4.37848e-11
4.37709e-11
4.37565e-11
4.37425e-11
4.37281e-11
4.37138e-11
4.36989e-11
4.36841e-11
4.36693e-11
4.36546e-11
4.36393e-11
4.36241e-11
4.36089e-11
4.35941e-11
4.35789e-11
4.35637e-11
4.35481e-11
4.35321e-11
4.35152e-11
4.34974e-11
4.34788e-11
4.34594e-11
4.34408e-11
4.34231e-11
4.34084e-11
4.33958e-11
4.33858e-11
4.33775e-11
4.33696e-11
4.33622e-11
4.33547e-11
4.33473e-11
4.33398e-11
4.33324e-11
4.3325e-11
4.33171e-11
4.33097e-11
4.33022e-11
4.32948e-11
4.32874e-11
4.32795e-11
4.32721e-11
4.32646e-11
4.32568e-11
4.32494e-11
4.32419e-11
4.32345e-11
4.32267e-11
4.32192e-11
4.32118e-11
4.3204e-11
4.31966e-11
4.31887e-11
4.31813e-11
4.31739e-11
4.31661e-11
4.31586e-11
4.31508e-11
4.31434e-11
4.31356e-11
4.31277e-11
4.31203e-11
4.31125e-11
4.31047e-11
4.30973e-11
4.3089e-11
4.30816e-11
4.30738e-11
4.30655e-11
4.30573e-11
4.30491e-11
4.30408e-11
4.30326e-11
4.30235e-11
4.30144e-11
4.30049e-11
4.2995e-11
4.29842e-11
4.29726e-11
4.29601e-11
4.2946e-11
4.29301e-11
4.29122e-11
4.28913e-11
4.2867e-11
4.28373e-11
4.28021e-11
4.27593e-11
4.27069e-11
4.26419e-11
4.25603e-11
4.2457e-11
4.23257e-11
4.21569e-11
4.19409e-11
4.16628e-11
4.1302e-11
4.08323e-11
4.04672e-11
4.04516e-11
4.05097e-11
4.04409e-11
4.0289e-11
4.01673e-11
4.0059e-11
3.99326e-11
3.97896e-11
3.96358e-11
3.94708e-11
3.92862e-11
9.08591e-11
1.32277e-09
2.52885e-08
6.21292e-07
2.58187e-05
0.00224677
0.0786665
0.0316362
0.00331829
0.000654232
0.000132632
5.85126e-05
9.49992e-06
9.96945e-06
2.37781e-07
4.45959e-17
4.29551e-37
1.26141e-48
2.85221e-60
4.98194e-72
7.87631e-84
1.1257e-95
1.27492e-107
1.61299e-119
2.15777e-123
1.26473e-133
9.69377e-138
1.29019e-139
1.54841e-141
1.83179e-143
1.62251e-145
1.06295e-147
6.19733e-158
1.7262e-168
3.49258e-179
5.3829e-190
7.50633e-201
1.31749e-203
1.65857e-205
1.99518e-207
1.8031e-209
1.191e-211
7.72249e-222
2.51555e-232
5.59826e-243
9.52976e-254
1.28323e-264
1.56298e-275
1.50221e-286
1.34742e-297
1.07964e-308
7.19261e-320
0
0
0
0
0
0
0
0
0
0
0
0
0
0
0
0
0
0
0
0
0
0
0
0
0
0
0
0
0
0
0
0
0
0
0
0
0
0
0
0
0
0
0
0
0
0
0
0
0
0
0
0
0
0
0
0
0
0
0
0
0
0
0
0
0
0
0
0
0
0
0
0
0
0
0
0
0
0
0
0
0
0
0
0
0
0
0
0
0
0
0
0
0
0
0
0
0
0
0
0
0
0
0
0
0
0
0
0
0
0
0
0
0
0
0
0
0
0
0
0
0
0
0
0
0
0
0
0
0
0
0
0
0
0
0
0
0
0
0
0
0
0
0
0
0
0
0
0
0
0
0
0
0
0
0
0
0
0
0
0
0
0
0
0
0
0
0
0
0
0
0
0
0
0
0
0
0
0
0
0
0
0
0
0
0
0
0
0
0
0
0
0
0
0
0
0
0
0
0
0
0
0
0
0
0
0
0
0
0
0
0
0
0
0
0
0
0
0
0
0
0
0
0
0
0
0
0
0
0
0
0
0
0
0
0
0
0
0
0
0
0
0
0
)
;

boundaryField
{
    inlet
    {
        type            cyclic;
    }
    outlet
    {
        type            cyclic;
    }
    top
    {
        type            symmetryPlane;
    }
    bottom
    {
        type            zeroGradient;
    }
    frontAndBackPlanes
    {
        type            empty;
    }
}


// ************************************************************************* //
