/*--------------------------------*- C++ -*----------------------------------*\
| =========                 |                                                 |
| \\      /  F ield         | OpenFOAM: The Open Source CFD Toolbox           |
|  \\    /   O peration     | Version:  2.4.0                                 |
|   \\  /    A nd           | Web:      www.OpenFOAM.org                      |
|    \\/     M anipulation  |                                                 |
\*---------------------------------------------------------------------------*/
FoamFile
{
    version     2.0;
    format      ascii;
    class       volScalarField;
    location    "250";
    object      pff;
}
// * * * * * * * * * * * * * * * * * * * * * * * * * * * * * * * * * * * * * //

dimensions      [1 -1 -2 0 0 0 0];

internalField   nonuniform List<scalar> 
438
(
620.961
616.282
611.987
607.554
603.152
598.616
594.115
589.652
585.224
580.832
576.311
571.83
567.544
562.977
558.605
554.27
549.816
545.4
541.023
536.683
532.23
527.817
523.443
519.109
514.812
510.411
506.05
501.728
497.307
493.065
488.727
484.428
480.036
475.819
471.511
467.114
462.889
458.579
454.311
449.96
445.654
441.393
437.174
432.879
428.629
424.425
420.38
416.263
412.188
408.043
403.831
399.444
394.89
390.175
385.309
380.717
376.393
372.838
369.83
367.453
365.494
363.647
361.909
360.18
358.46
356.748
355.045
353.351
351.569
349.893
348.225
346.566
344.915
343.179
341.546
339.921
338.212
336.603
335.004
333.412
331.738
330.163
328.596
326.948
325.397
323.766
322.232
320.705
319.1
317.588
316
314.504
312.932
311.368
309.896
308.349
306.81
305.36
303.755
302.322
300.815
299.234
297.663
296.1
294.546
293.001
291.307
289.623
287.872
286.055
284.097
282.001
279.77
277.259
274.476
271.357
267.772
263.669
258.73
253.006
246.23
238.18
228.578
217.072
203.368
187.206
168.355
147.02
123.547
98.6449
73.6153
58.6365
58.0686
60.2119
57.6823
52.4673
48.6273
45.4435
41.9872
38.385
34.8512
31.411
27.9534
24.3026
20.4282
16.9224
13.9458
9.81802
4.61046
1.64685
0
0
0
0
0
0
0
0
0
0
0
0
0
0
0
0
0
0
0
0
0
0
0
0
0
0
0
0
0
0
0
0
0
0
0
0
0
0
0
0
0
0
0
0
0
0
0
0
0
0
0
0
0
0
0
0
0
0
0
0
0
0
0
0
0
0
0
0
0
0
0
0
0
0
0
0
0
0
0
0
0
0
0
0
0
0
0
0
0
0
0
0
0
0
0
0
0
0
0
0
0
0
0
0
0
0
0
0
0
0
0
0
0
0
0
0
0
0
0
0
0
0
0
0
0
0
0
0
0
0
0
0
0
0
0
0
0
0
0
0
0
0
0
0
0
0
0
0
0
0
0
0
0
0
0
0
0
0
0
0
0
0
0
0
0
0
0
0
0
0
0
0
0
0
0
0
0
0
0
0
0
0
0
0
0
0
0
0
0
0
0
0
0
0
0
0
0
0
0
0
0
0
0
0
0
0
0
0
0
0
0
0
0
0
0
0
0
0
0
0
0
0
0
0
0
0
0
0
0
0
0
0
0
0
0
0
0
0
0
0
0
0
0
0
0
0
0
0
0
0
0
0
0
0
0
0
0
0
0
0
0
0
0
0
0
0
0
0
0
0
0
0
0
0
0
0
0
0
0
0
0
0
0
0
0
0
0
0
)
;

boundaryField
{
    inlet
    {
        type            cyclic;
    }
    outlet
    {
        type            cyclic;
    }
    top
    {
        type            symmetryPlane;
    }
    bottom
    {
        type            calculated;
        value           uniform 620.961;
    }
    frontAndBackPlanes
    {
        type            empty;
    }
}


// ************************************************************************* //
