/*--------------------------------*- C++ -*----------------------------------*\
| =========                 |                                                 |
| \\      /  F ield         | OpenFOAM: The Open Source CFD Toolbox           |
|  \\    /   O peration     | Version:  2.4.0                                 |
|   \\  /    A nd           | Web:      www.OpenFOAM.org                      |
|    \\/     M anipulation  |                                                 |
\*---------------------------------------------------------------------------*/
FoamFile
{
    version     2.0;
    format      ascii;
    class       surfaceScalarField;
    location    "250";
    object      phia;
}
// * * * * * * * * * * * * * * * * * * * * * * * * * * * * * * * * * * * * * //

dimensions      [0 3 -1 0 0 0 0];

internalField   nonuniform List<scalar> 
437
(
-1.49891e-12
-2.99592e-12
-4.4828e-12
-5.9645e-12
-7.43808e-12
-8.90681e-12
-1.03693e-11
-1.18254e-11
-1.3275e-11
-1.47167e-11
-1.61531e-11
-1.75841e-11
-1.90045e-11
-2.04219e-11
-2.18308e-11
-2.32315e-11
-2.46262e-11
-2.60137e-11
-2.7394e-11
-2.87658e-11
-3.01316e-11
-3.14902e-11
-3.28412e-11
-3.41846e-11
-3.55189e-11
-3.68466e-11
-3.81666e-11
-3.94777e-11
-4.07832e-11
-4.20782e-11
-4.33664e-11
-4.4645e-11
-4.59177e-11
-4.71799e-11
-4.84338e-11
-4.96814e-11
-5.09185e-11
-5.21482e-11
-5.33685e-11
-5.45814e-11
-5.57858e-11
-5.69815e-11
-5.81673e-11
-5.93451e-11
-6.05134e-11
-6.16726e-11
-6.28194e-11
-6.39563e-11
-6.50815e-11
-6.61968e-11
-6.73023e-11
-6.84008e-11
-6.94943e-11
-7.0584e-11
-7.16733e-11
-7.27563e-11
-7.38325e-11
-7.48891e-11
-7.59216e-11
-7.69208e-11
-7.78812e-11
-7.88021e-11
-7.96812e-11
-8.05187e-11
-8.13144e-11
-8.2068e-11
-8.27796e-11
-8.34486e-11
-8.40771e-11
-8.46626e-11
-8.52057e-11
-8.57063e-11
-8.61636e-11
-8.65799e-11
-8.69529e-11
-8.72824e-11
-8.75705e-11
-8.78148e-11
-8.8016e-11
-8.81732e-11
-8.82885e-11
-8.83597e-11
-8.83868e-11
-8.83718e-11
-8.83119e-11
-8.82096e-11
-8.80628e-11
-8.78713e-11
-8.76373e-11
-8.73577e-11
-8.70355e-11
-8.66677e-11
-8.62564e-11
-8.58016e-11
-8.53011e-11
-8.47568e-11
-8.41687e-11
-8.35341e-11
-8.28576e-11
-8.21345e-11
-8.13671e-11
-8.05562e-11
-7.97014e-11
-7.88027e-11
-7.78602e-11
-7.68732e-11
-7.58446e-11
-7.47734e-11
-7.3661e-11
-7.25079e-11
-7.13163e-11
-7.0088e-11
-6.88243e-11
-6.75295e-11
-6.62069e-11
-6.48608e-11
-6.34979e-11
-6.21238e-11
-6.0751e-11
-5.93885e-11
-5.80509e-11
-5.67545e-11
-5.55197e-11
-5.43713e-11
-5.33379e-11
-5.24505e-11
-5.17447e-11
-5.12514e-11
-5.09974e-11
-5.09843e-11
-5.12377e-11
-5.16323e-11
-5.19587e-11
-5.22014e-11
-5.24232e-11
-5.26531e-11
-5.28622e-11
-5.3049e-11
-5.3219e-11
-5.33725e-11
-5.35084e-11
-5.3626e-11
-5.37252e-11
-5.3808e-11
-5.38787e-11
-5.39343e-11
-5.39628e-11
-5.39766e-11
-5.40448e-11
3.67294e-09
-1.57875e-07
4.04411e-08
-1.11897e-06
2.00094e-06
2.41758e-06
4.93815e-06
3.02981e-06
-4.29393e-05
-6.31e-05
-6.25885e-05
-6.23505e-05
-6.24852e-05
-6.24529e-05
-6.24979e-05
-6.25076e-05
-6.25338e-05
-6.25522e-05
-6.25739e-05
-6.25936e-05
-6.26135e-05
-6.26326e-05
-6.26512e-05
-6.26691e-05
-6.26864e-05
-6.2703e-05
-6.27188e-05
-6.27339e-05
-6.27481e-05
-6.27616e-05
-6.27741e-05
-6.27857e-05
-6.27963e-05
-6.28059e-05
-6.28143e-05
-6.28216e-05
-6.28277e-05
-6.28325e-05
-6.28359e-05
-6.28378e-05
-6.28384e-05
-6.28374e-05
-6.28351e-05
-6.28313e-05
-6.28264e-05
-6.28203e-05
-6.28135e-05
-6.28061e-05
-6.27985e-05
-6.27909e-05
-6.27836e-05
-6.27768e-05
-6.27707e-05
-6.27656e-05
-6.27619e-05
-6.27575e-05
-6.27535e-05
-6.27511e-05
-6.27488e-05
-6.27471e-05
-6.27457e-05
-6.27446e-05
-6.27437e-05
-6.27431e-05
-6.27426e-05
-6.27422e-05
-6.27419e-05
-6.27416e-05
-6.27414e-05
-6.27412e-05
-6.2741e-05
-6.27408e-05
-6.27406e-05
-6.27403e-05
-6.274e-05
-6.27397e-05
-6.27393e-05
-6.27389e-05
-6.27384e-05
-6.27379e-05
-6.27374e-05
-6.27368e-05
-6.27362e-05
-6.27355e-05
-6.27348e-05
-6.27341e-05
-6.27334e-05
-6.27327e-05
-6.2732e-05
-6.27313e-05
-6.27306e-05
-6.27299e-05
-6.27292e-05
-6.27285e-05
-6.27279e-05
-6.27273e-05
-6.27267e-05
-6.27262e-05
-6.27256e-05
-6.27251e-05
-6.27246e-05
-6.27242e-05
-6.27239e-05
-6.27235e-05
-6.27231e-05
-6.27228e-05
-6.27225e-05
-6.27223e-05
-6.2722e-05
-6.27218e-05
-6.27216e-05
-6.27214e-05
-6.27213e-05
-6.27211e-05
-6.2721e-05
-6.27208e-05
-6.27207e-05
-6.27206e-05
-6.27205e-05
-6.27204e-05
-6.27203e-05
-6.27203e-05
-6.27202e-05
-6.27201e-05
-6.27201e-05
-6.272e-05
-6.27199e-05
-6.27199e-05
-6.27198e-05
-6.27198e-05
-6.27197e-05
-6.27196e-05
-6.27196e-05
-6.27195e-05
-6.27195e-05
-6.27194e-05
-6.27194e-05
-6.27194e-05
-6.27193e-05
-6.27193e-05
-6.27192e-05
-6.27192e-05
-6.27191e-05
-6.27191e-05
-6.2719e-05
-6.2719e-05
-6.2719e-05
-6.27189e-05
-6.27189e-05
-6.27188e-05
-6.27188e-05
-6.27188e-05
-6.27187e-05
-6.27187e-05
-6.27187e-05
-6.27186e-05
-6.27186e-05
-6.27186e-05
-6.27185e-05
-6.27185e-05
-6.27185e-05
-6.27184e-05
-6.27184e-05
-6.27184e-05
-6.27183e-05
-6.27183e-05
-6.27183e-05
-6.27183e-05
-6.27182e-05
-6.27182e-05
-6.27182e-05
-6.27182e-05
-6.27181e-05
-6.27181e-05
-6.27181e-05
-6.27181e-05
-6.27181e-05
-6.2718e-05
-6.2718e-05
-6.2718e-05
-6.2718e-05
-6.2718e-05
-6.2718e-05
-6.27179e-05
-6.27179e-05
-6.27179e-05
-6.27179e-05
-6.27179e-05
-6.27179e-05
-6.27179e-05
-6.27178e-05
-6.27178e-05
-6.27178e-05
-6.27178e-05
-6.27178e-05
-6.27178e-05
-6.27178e-05
-6.27178e-05
-6.27178e-05
-6.27178e-05
-6.27178e-05
-6.27177e-05
-6.27177e-05
-6.27177e-05
-6.27177e-05
-6.27177e-05
-6.27177e-05
-6.27177e-05
-6.27177e-05
-6.27177e-05
-6.27177e-05
-6.27177e-05
-6.27177e-05
-6.27177e-05
-6.27177e-05
-6.27177e-05
-6.27177e-05
-6.27177e-05
-6.27177e-05
-6.27177e-05
-6.27177e-05
-6.27177e-05
-6.27177e-05
-6.27177e-05
-6.27177e-05
-6.27177e-05
-6.27177e-05
-6.27177e-05
-6.27177e-05
-6.27177e-05
-6.27177e-05
-6.27176e-05
-6.27176e-05
-6.27176e-05
-6.27176e-05
-6.27176e-05
-6.27176e-05
-6.27176e-05
-6.27176e-05
-6.27176e-05
-6.27176e-05
-6.27176e-05
-6.27176e-05
-6.27176e-05
-6.27176e-05
-6.27176e-05
-6.27176e-05
-6.27176e-05
-6.27176e-05
-6.27176e-05
-6.27176e-05
-6.27176e-05
-6.27176e-05
-6.27176e-05
-6.27176e-05
-6.27176e-05
-6.27176e-05
-6.27176e-05
-6.27176e-05
-6.27176e-05
-6.27176e-05
-6.27176e-05
-6.27176e-05
-6.27176e-05
-6.27176e-05
-6.27176e-05
-6.27176e-05
-6.27176e-05
-6.27176e-05
-6.27176e-05
-6.27176e-05
-6.27176e-05
-6.27176e-05
-6.27176e-05
-6.27176e-05
-6.27176e-05
-6.27176e-05
-6.27176e-05
-6.27176e-05
-6.27176e-05
-6.27176e-05
-6.27176e-05
-6.27176e-05
-6.27174e-05
-6.27141e-05
-6.26646e-05
-6.19181e-05
-5.21796e-05
)
;

boundaryField
{
    inlet
    {
        type            cyclic;
        value           nonuniform List<scalar> 
438
(
-2.22377e-16
-6.61516e-16
-1.09497e-15
-1.52297e-15
-1.94529e-15
-2.36232e-15
-2.7737e-15
-3.17997e-15
-3.5806e-15
-3.9763e-15
-4.36636e-15
-4.75167e-15
-5.13136e-15
-5.50648e-15
-5.87599e-15
-6.24111e-15
-6.60062e-15
-6.95592e-15
-7.30563e-15
-7.65131e-15
-7.9914e-15
-8.32763e-15
-8.65829e-15
-8.98528e-15
-9.30668e-15
-9.6246e-15
-9.93694e-15
-1.0246e-14
-1.05494e-14
-1.08498e-14
-1.11445e-14
-1.14364e-14
-1.17226e-14
-1.20061e-14
-1.2284e-14
-1.25593e-14
-1.2829e-14
-1.30964e-14
-1.33581e-14
-1.36177e-14
-1.38716e-14
-1.41235e-14
-1.43698e-14
-1.46143e-14
-1.48531e-14
-1.50903e-14
-1.53218e-14
-1.55518e-14
-1.57762e-14
-1.59993e-14
-1.62167e-14
-1.6433e-14
-1.66436e-14
-1.68533e-14
-1.70573e-14
-1.72605e-14
-1.74579e-14
-1.76549e-14
-1.7846e-14
-1.80368e-14
-1.82217e-14
-1.84066e-14
-1.85854e-14
-1.87644e-14
-1.89374e-14
-1.91107e-14
-1.9278e-14
-1.94458e-14
-1.96074e-14
-1.97698e-14
-1.9926e-14
-2.00831e-14
-2.0234e-14
-2.0386e-14
-2.05317e-14
-2.06788e-14
-2.08194e-14
-2.09617e-14
-2.10974e-14
-2.12349e-14
-2.13658e-14
-2.14988e-14
-2.16251e-14
-2.17536e-14
-2.18753e-14
-2.19995e-14
-2.21168e-14
-2.22367e-14
-2.23497e-14
-2.24656e-14
-2.25744e-14
-2.26863e-14
-2.2791e-14
-2.2899e-14
-2.29998e-14
-2.3104e-14
-2.32009e-14
-2.33015e-14
-2.33946e-14
-2.34917e-14
-2.35811e-14
-2.36747e-14
-2.37606e-14
-2.38508e-14
-2.39332e-14
-2.40201e-14
-2.40991e-14
-2.41829e-14
-2.42586e-14
-2.43392e-14
-2.44117e-14
-2.44893e-14
-2.45586e-14
-2.46333e-14
-2.46996e-14
-2.47714e-14
-2.48346e-14
-2.49036e-14
-2.4964e-14
-2.50302e-14
-2.50877e-14
-2.51513e-14
-2.5206e-14
-2.5267e-14
-2.53189e-14
-2.53773e-14
-2.54266e-14
-2.54825e-14
-2.55292e-14
-2.55826e-14
-2.56267e-14
-2.56777e-14
-2.57193e-14
-2.5768e-14
-2.58071e-14
-2.58534e-14
-2.58901e-14
-2.59341e-14
-2.59684e-14
-2.60101e-14
-2.60421e-14
-2.60816e-14
-2.61112e-14
-2.61484e-14
-2.61758e-14
-2.62108e-14
-2.62359e-14
-2.62687e-14
-2.62948e-14
-2.63622e-14
-1.35376e-08
-8.06121e-08
-9.86439e-08
-1.02795e-07
-1.03582e-07
-1.0309e-07
-1.02329e-07
-9.81447e-08
-9.59868e-08
-9.26675e-08
-8.93811e-08
-8.63151e-08
-8.29326e-08
-7.9662e-08
-7.61801e-08
-7.27742e-08
-6.9265e-08
-6.57896e-08
-6.22848e-08
-5.87985e-08
-5.53212e-08
-5.18669e-08
-4.84412e-08
-4.50497e-08
-4.16999e-08
-3.83966e-08
-3.51464e-08
-3.19545e-08
-2.8827e-08
-2.57697e-08
-2.27885e-08
-1.98896e-08
-1.70794e-08
-1.43644e-08
-1.17514e-08
-9.24724e-09
-6.85913e-09
-4.59414e-09
-2.4593e-09
-4.61376e-10
1.39338e-09
3.09951e-09
4.65267e-09
6.04999e-09
7.2904e-09
8.37494e-09
9.30693e-09
1.0092e-08
1.07379e-08
1.12543e-08
1.16521e-08
1.19434e-08
1.21381e-08
1.22345e-08
1.2269e-08
1.22576e-08
1.2172e-08
1.20471e-08
1.18815e-08
1.16829e-08
1.14571e-08
1.12083e-08
1.09409e-08
1.06584e-08
1.03643e-08
1.00614e-08
9.75234e-09
9.43958e-09
9.12523e-09
8.81128e-09
8.49951e-09
8.19153e-09
7.88882e-09
7.59271e-09
7.30439e-09
7.02494e-09
6.75528e-09
6.49626e-09
6.24858e-09
6.01283e-09
5.7895e-09
5.57897e-09
5.38149e-09
5.19724e-09
5.02628e-09
4.86858e-09
4.72402e-09
4.59237e-09
4.47336e-09
4.36662e-09
4.2717e-09
4.18814e-09
4.11538e-09
4.05285e-09
3.99993e-09
3.95599e-09
3.92037e-09
3.89239e-09
3.87138e-09
3.85665e-09
3.84884e-09
3.84558e-09
3.84513e-09
3.85051e-09
3.85834e-09
3.86954e-09
3.88291e-09
3.89832e-09
3.91523e-09
3.9333e-09
3.95218e-09
3.97156e-09
3.99116e-09
4.01072e-09
4.03005e-09
4.04895e-09
4.06727e-09
4.08488e-09
4.10166e-09
4.11754e-09
4.13246e-09
4.14636e-09
4.15924e-09
4.17107e-09
4.18187e-09
4.19164e-09
4.20041e-09
4.20823e-09
4.21513e-09
4.22116e-09
4.22637e-09
4.23082e-09
4.23456e-09
4.23766e-09
4.24018e-09
4.24216e-09
4.24368e-09
4.24478e-09
4.24552e-09
4.24589e-09
4.24602e-09
4.24602e-09
4.24573e-09
4.24535e-09
4.24483e-09
4.24424e-09
4.24359e-09
4.24291e-09
4.24223e-09
4.24154e-09
4.27822e-09
4.38105e-09
4.48638e-09
4.59429e-09
4.70485e-09
4.81815e-09
4.93426e-09
5.05326e-09
5.17523e-09
5.30027e-09
5.42843e-09
5.55976e-09
5.69443e-09
5.83244e-09
5.9739e-09
6.11889e-09
6.26749e-09
6.41976e-09
6.5758e-09
6.73569e-09
6.89949e-09
7.06731e-09
7.23922e-09
7.41531e-09
7.59568e-09
7.78042e-09
7.96963e-09
8.1634e-09
8.36186e-09
8.5651e-09
8.77324e-09
8.98639e-09
9.20469e-09
9.42823e-09
9.65716e-09
9.8916e-09
1.01317e-08
1.03775e-08
1.06293e-08
1.0887e-08
1.11509e-08
1.14212e-08
1.16978e-08
1.19811e-08
1.2271e-08
1.25678e-08
1.28716e-08
1.31825e-08
1.35007e-08
1.38264e-08
1.41596e-08
1.45006e-08
1.48494e-08
1.52063e-08
1.55714e-08
1.59448e-08
1.63267e-08
1.67173e-08
1.71166e-08
1.7525e-08
1.79425e-08
1.83693e-08
1.88056e-08
1.92516e-08
1.97074e-08
2.01733e-08
2.06495e-08
2.11361e-08
2.16336e-08
2.2142e-08
2.26618e-08
2.31934e-08
2.37371e-08
2.42936e-08
2.48633e-08
2.54473e-08
2.60464e-08
2.66618e-08
2.72947e-08
2.79462e-08
2.86165e-08
2.93057e-08
3.0013e-08
3.07383e-08
3.14816e-08
3.2243e-08
3.30229e-08
3.38217e-08
3.35264e-08
3.35264e-08
3.35264e-08
3.35264e-08
3.35264e-08
3.35264e-08
3.35264e-08
3.35264e-08
3.35264e-08
3.35264e-08
3.35264e-08
3.35264e-08
3.35264e-08
3.35264e-08
3.35264e-08
3.35264e-08
3.35264e-08
3.35264e-08
3.35264e-08
3.35264e-08
3.35264e-08
3.35264e-08
3.35264e-08
3.35264e-08
3.35264e-08
3.35264e-08
3.35264e-08
3.35264e-08
3.35264e-08
3.35264e-08
3.35264e-08
3.35264e-08
3.35264e-08
3.35264e-08
3.35264e-08
3.35264e-08
3.35264e-08
3.35264e-08
3.35264e-08
3.35264e-08
3.35264e-08
3.35264e-08
3.35264e-08
3.35264e-08
3.35265e-08
3.35277e-08
3.35389e-08
3.36434e-08
3.45498e-08
4.20727e-08
)
;
    }
    outlet
    {
        type            cyclic;
        value           nonuniform List<scalar> 
438
(
2.22377e-16
6.61516e-16
1.09497e-15
1.52297e-15
1.94529e-15
2.36232e-15
2.7737e-15
3.17997e-15
3.5806e-15
3.9763e-15
4.36636e-15
4.75167e-15
5.13136e-15
5.50648e-15
5.87599e-15
6.24111e-15
6.60062e-15
6.95592e-15
7.30563e-15
7.65131e-15
7.9914e-15
8.32763e-15
8.65829e-15
8.98528e-15
9.30668e-15
9.6246e-15
9.93694e-15
1.0246e-14
1.05494e-14
1.08498e-14
1.11445e-14
1.14364e-14
1.17226e-14
1.20061e-14
1.2284e-14
1.25593e-14
1.2829e-14
1.30964e-14
1.33581e-14
1.36177e-14
1.38716e-14
1.41235e-14
1.43698e-14
1.46143e-14
1.48531e-14
1.50903e-14
1.53218e-14
1.55518e-14
1.57762e-14
1.59993e-14
1.62167e-14
1.6433e-14
1.66436e-14
1.68533e-14
1.70573e-14
1.72605e-14
1.74579e-14
1.76549e-14
1.7846e-14
1.80368e-14
1.82217e-14
1.84066e-14
1.85854e-14
1.87644e-14
1.89374e-14
1.91107e-14
1.9278e-14
1.94458e-14
1.96074e-14
1.97698e-14
1.9926e-14
2.00831e-14
2.0234e-14
2.0386e-14
2.05317e-14
2.06788e-14
2.08194e-14
2.09617e-14
2.10974e-14
2.12349e-14
2.13658e-14
2.14988e-14
2.16251e-14
2.17536e-14
2.18753e-14
2.19995e-14
2.21168e-14
2.22367e-14
2.23497e-14
2.24656e-14
2.25744e-14
2.26863e-14
2.2791e-14
2.2899e-14
2.29998e-14
2.3104e-14
2.32009e-14
2.33015e-14
2.33946e-14
2.34917e-14
2.35811e-14
2.36747e-14
2.37606e-14
2.38508e-14
2.39332e-14
2.40201e-14
2.40991e-14
2.41829e-14
2.42586e-14
2.43392e-14
2.44117e-14
2.44893e-14
2.45586e-14
2.46333e-14
2.46996e-14
2.47714e-14
2.48346e-14
2.49036e-14
2.4964e-14
2.50302e-14
2.50877e-14
2.51513e-14
2.5206e-14
2.5267e-14
2.53189e-14
2.53773e-14
2.54266e-14
2.54825e-14
2.55292e-14
2.55826e-14
2.56267e-14
2.56777e-14
2.57193e-14
2.5768e-14
2.58071e-14
2.58534e-14
2.58901e-14
2.59341e-14
2.59684e-14
2.60101e-14
2.60421e-14
2.60816e-14
2.61112e-14
2.61484e-14
2.61758e-14
2.62108e-14
2.62359e-14
2.62687e-14
2.62948e-14
2.63622e-14
1.35376e-08
8.06121e-08
9.86439e-08
1.02795e-07
1.03582e-07
1.0309e-07
1.02329e-07
9.81447e-08
9.59868e-08
9.26675e-08
8.93811e-08
8.63151e-08
8.29326e-08
7.9662e-08
7.61801e-08
7.27742e-08
6.9265e-08
6.57896e-08
6.22848e-08
5.87985e-08
5.53212e-08
5.18669e-08
4.84412e-08
4.50497e-08
4.16999e-08
3.83966e-08
3.51464e-08
3.19545e-08
2.8827e-08
2.57697e-08
2.27885e-08
1.98896e-08
1.70794e-08
1.43644e-08
1.17514e-08
9.24724e-09
6.85913e-09
4.59414e-09
2.4593e-09
4.61376e-10
-1.39338e-09
-3.09951e-09
-4.65267e-09
-6.04999e-09
-7.2904e-09
-8.37494e-09
-9.30693e-09
-1.0092e-08
-1.07379e-08
-1.12543e-08
-1.16521e-08
-1.19434e-08
-1.21381e-08
-1.22345e-08
-1.2269e-08
-1.22576e-08
-1.2172e-08
-1.20471e-08
-1.18815e-08
-1.16829e-08
-1.14571e-08
-1.12083e-08
-1.09409e-08
-1.06584e-08
-1.03643e-08
-1.00614e-08
-9.75234e-09
-9.43958e-09
-9.12523e-09
-8.81128e-09
-8.49951e-09
-8.19153e-09
-7.88882e-09
-7.59271e-09
-7.30439e-09
-7.02494e-09
-6.75528e-09
-6.49626e-09
-6.24858e-09
-6.01283e-09
-5.7895e-09
-5.57897e-09
-5.38149e-09
-5.19724e-09
-5.02628e-09
-4.86858e-09
-4.72402e-09
-4.59237e-09
-4.47336e-09
-4.36662e-09
-4.2717e-09
-4.18814e-09
-4.11538e-09
-4.05285e-09
-3.99993e-09
-3.95599e-09
-3.92037e-09
-3.89239e-09
-3.87138e-09
-3.85665e-09
-3.84884e-09
-3.84558e-09
-3.84513e-09
-3.85051e-09
-3.85834e-09
-3.86954e-09
-3.88291e-09
-3.89832e-09
-3.91523e-09
-3.9333e-09
-3.95218e-09
-3.97156e-09
-3.99116e-09
-4.01072e-09
-4.03005e-09
-4.04895e-09
-4.06727e-09
-4.08488e-09
-4.10166e-09
-4.11754e-09
-4.13246e-09
-4.14636e-09
-4.15924e-09
-4.17107e-09
-4.18187e-09
-4.19164e-09
-4.20041e-09
-4.20823e-09
-4.21513e-09
-4.22116e-09
-4.22637e-09
-4.23082e-09
-4.23456e-09
-4.23766e-09
-4.24018e-09
-4.24216e-09
-4.24368e-09
-4.24478e-09
-4.24552e-09
-4.24589e-09
-4.24602e-09
-4.24602e-09
-4.24573e-09
-4.24535e-09
-4.24483e-09
-4.24424e-09
-4.24359e-09
-4.24291e-09
-4.24223e-09
-4.24154e-09
-4.27822e-09
-4.38105e-09
-4.48638e-09
-4.59429e-09
-4.70485e-09
-4.81815e-09
-4.93426e-09
-5.05326e-09
-5.17523e-09
-5.30027e-09
-5.42843e-09
-5.55976e-09
-5.69443e-09
-5.83244e-09
-5.9739e-09
-6.11889e-09
-6.26749e-09
-6.41976e-09
-6.5758e-09
-6.73569e-09
-6.89949e-09
-7.06731e-09
-7.23922e-09
-7.41531e-09
-7.59568e-09
-7.78042e-09
-7.96963e-09
-8.1634e-09
-8.36186e-09
-8.5651e-09
-8.77324e-09
-8.98639e-09
-9.20469e-09
-9.42823e-09
-9.65716e-09
-9.8916e-09
-1.01317e-08
-1.03775e-08
-1.06293e-08
-1.0887e-08
-1.11509e-08
-1.14212e-08
-1.16978e-08
-1.19811e-08
-1.2271e-08
-1.25678e-08
-1.28716e-08
-1.31825e-08
-1.35007e-08
-1.38264e-08
-1.41596e-08
-1.45006e-08
-1.48494e-08
-1.52063e-08
-1.55714e-08
-1.59448e-08
-1.63267e-08
-1.67173e-08
-1.71166e-08
-1.7525e-08
-1.79425e-08
-1.83693e-08
-1.88056e-08
-1.92516e-08
-1.97074e-08
-2.01733e-08
-2.06495e-08
-2.11361e-08
-2.16336e-08
-2.2142e-08
-2.26618e-08
-2.31934e-08
-2.37371e-08
-2.42936e-08
-2.48633e-08
-2.54473e-08
-2.60464e-08
-2.66618e-08
-2.72947e-08
-2.79462e-08
-2.86165e-08
-2.93057e-08
-3.0013e-08
-3.07383e-08
-3.14816e-08
-3.2243e-08
-3.30229e-08
-3.38217e-08
-3.35264e-08
-3.35264e-08
-3.35264e-08
-3.35264e-08
-3.35264e-08
-3.35264e-08
-3.35264e-08
-3.35264e-08
-3.35264e-08
-3.35264e-08
-3.35264e-08
-3.35264e-08
-3.35264e-08
-3.35264e-08
-3.35264e-08
-3.35264e-08
-3.35264e-08
-3.35264e-08
-3.35264e-08
-3.35264e-08
-3.35264e-08
-3.35264e-08
-3.35264e-08
-3.35264e-08
-3.35264e-08
-3.35264e-08
-3.35264e-08
-3.35264e-08
-3.35264e-08
-3.35264e-08
-3.35264e-08
-3.35264e-08
-3.35264e-08
-3.35264e-08
-3.35264e-08
-3.35264e-08
-3.35264e-08
-3.35264e-08
-3.35264e-08
-3.35264e-08
-3.35264e-08
-3.35264e-08
-3.35264e-08
-3.35264e-08
-3.35265e-08
-3.35277e-08
-3.35389e-08
-3.36434e-08
-3.45498e-08
-4.20727e-08
)
;
    }
    top
    {
        type            symmetryPlane;
        value           uniform 0;
    }
    bottom
    {
        type            fixedValue;
        value           uniform 0;
    }
    frontAndBackPlanes
    {
        type            empty;
        value           nonuniform 0();
    }
}


// ************************************************************************* //
