/*--------------------------------*- C++ -*----------------------------------*\
| =========                 |                                                 |
| \\      /  F ield         | OpenFOAM: The Open Source CFD Toolbox           |
|  \\    /   O peration     | Version:  2.4.0                                 |
|   \\  /    A nd           | Web:      www.OpenFOAM.org                      |
|    \\/     M anipulation  |                                                 |
\*---------------------------------------------------------------------------*/
FoamFile
{
    version     2.0;
    format      ascii;
    class       surfaceScalarField;
    location    "250";
    object      phib;
}
// * * * * * * * * * * * * * * * * * * * * * * * * * * * * * * * * * * * * * //

dimensions      [0 3 -1 0 0 0 0];

internalField   nonuniform List<scalar> 
437
(
2.36673e-12
4.72997e-12
7.07674e-12
9.41482e-12
1.17396e-11
1.40561e-11
1.63624e-11
1.8658e-11
2.09428e-11
2.32147e-11
2.54775e-11
2.77316e-11
2.99683e-11
3.21996e-11
3.44172e-11
3.66211e-11
3.88151e-11
4.09972e-11
4.31674e-11
4.53236e-11
4.74699e-11
4.96041e-11
5.1726e-11
5.38352e-11
5.59296e-11
5.80129e-11
6.00836e-11
6.21396e-11
6.41862e-11
6.62159e-11
6.8234e-11
7.02366e-11
7.22291e-11
7.42047e-11
7.61664e-11
7.81177e-11
8.00519e-11
8.19738e-11
8.38801e-11
8.57742e-11
8.76543e-11
8.95202e-11
9.13699e-11
9.32063e-11
9.50271e-11
9.68336e-11
9.86198e-11
1.0039e-10
1.02141e-10
1.03875e-10
1.05593e-10
1.07298e-10
1.08994e-10
1.10683e-10
1.1237e-10
1.14048e-10
1.15717e-10
1.17357e-10
1.18962e-10
1.20517e-10
1.22012e-10
1.23445e-10
1.24814e-10
1.26116e-10
1.27353e-10
1.28524e-10
1.29629e-10
1.30667e-10
1.31641e-10
1.32548e-10
1.33389e-10
1.34163e-10
1.34869e-10
1.3551e-10
1.36084e-10
1.3659e-10
1.3703e-10
1.37403e-10
1.37707e-10
1.37943e-10
1.38113e-10
1.38214e-10
1.38246e-10
1.38213e-10
1.38109e-10
1.37938e-10
1.37699e-10
1.37389e-10
1.37013e-10
1.36565e-10
1.36052e-10
1.35467e-10
1.34813e-10
1.34092e-10
1.333e-10
1.32439e-10
1.31511e-10
1.30509e-10
1.29442e-10
1.28303e-10
1.27094e-10
1.25817e-10
1.24472e-10
1.23059e-10
1.21577e-10
1.20026e-10
1.18409e-10
1.16726e-10
1.14978e-10
1.13167e-10
1.11295e-10
1.09365e-10
1.07379e-10
1.05343e-10
1.03263e-10
1.01144e-10
9.89967e-11
9.68285e-11
9.46584e-11
9.24998e-11
9.03737e-11
8.83041e-11
8.63199e-11
8.44566e-11
8.27543e-11
8.12553e-11
8.00068e-11
7.90461e-11
7.83986e-11
7.8044e-11
7.80923e-11
7.85373e-11
7.90515e-11
7.94162e-11
7.9661e-11
7.9895e-11
8.01147e-11
8.02976e-11
8.04392e-11
8.05432e-11
8.06102e-11
8.06349e-11
8.06067e-11
8.05139e-11
8.03694e-11
8.01892e-11
7.98582e-11
7.91333e-11
7.80808e-11
-2.08449e-09
1.20626e-08
-1.54278e-10
5.09531e-10
-1.70676e-10
-5.794e-11
-3.27559e-11
-8.87305e-12
8.20788e-12
-1.42331e-16
-1.72793e-16
-1.749e-16
-1.77587e-16
-1.80522e-16
-1.82598e-16
-1.85119e-16
-1.87307e-16
-1.89967e-16
-1.92826e-16
-1.95694e-16
-1.97914e-16
-1.99902e-16
-2.02188e-16
-2.03983e-16
-2.0592e-16
-2.08323e-16
-2.10577e-16
-2.12529e-16
-2.1531e-16
-2.17073e-16
-2.19586e-16
-2.21953e-16
-2.24122e-16
-2.26602e-16
-2.29778e-16
-2.31765e-16
-2.34558e-16
-2.36378e-16
-2.38192e-16
-2.40436e-16
-2.4321e-16
-2.45808e-16
-2.47534e-16
-2.4989e-16
-2.52343e-16
-2.54795e-16
-2.57437e-16
-2.59938e-16
-2.62019e-16
-2.63766e-16
-2.66553e-16
-2.68423e-16
-2.71118e-16
-2.7289e-16
-2.75703e-16
-2.77625e-16
-2.80081e-16
-2.82454e-16
-2.8564e-16
-2.87711e-16
-2.90309e-16
-2.92629e-16
-2.95184e-16
-2.97175e-16
-2.99359e-16
-3.01692e-16
-3.04383e-16
-3.06842e-16
-3.09279e-16
-3.11257e-16
-3.13472e-16
-3.15762e-16
-3.18038e-16
-3.20325e-16
-3.23212e-16
-3.25829e-16
-3.2768e-16
-3.2969e-16
-3.32225e-16
-3.34689e-16
-3.36979e-16
-3.38643e-16
-3.41173e-16
-3.43178e-16
-3.45079e-16
-3.47069e-16
-3.49822e-16
-3.51852e-16
-3.53746e-16
-3.55828e-16
-3.58043e-16
-3.6058e-16
-3.63548e-16
-3.65898e-16
-3.68108e-16
-3.70466e-16
-3.72926e-16
-3.75331e-16
-3.77367e-16
-3.79665e-16
-3.82219e-16
-3.84972e-16
-3.87253e-16
-3.89501e-16
-3.9118e-16
-3.9345e-16
-3.95239e-16
-3.97769e-16
-3.99818e-16
-4.02062e-16
-4.04446e-16
-4.06318e-16
-4.08598e-16
-4.10557e-16
-4.12333e-16
-4.1457e-16
-4.17346e-16
-4.19249e-16
-4.2161e-16
-4.24609e-16
-4.26581e-16
-4.29197e-16
-4.31285e-16
-4.33711e-16
-4.36392e-16
-4.38708e-16
-4.41357e-16
-4.43355e-16
-4.45712e-16
-4.474e-16
-4.49226e-16
-4.52411e-16
-4.54054e-16
-4.56252e-16
-4.58198e-16
-4.60932e-16
-4.63139e-16
-4.64599e-16
-4.66608e-16
-4.68637e-16
-4.70731e-16
-4.73407e-16
-4.7518e-16
-4.77277e-16
-4.79368e-16
-4.81745e-16
-4.84127e-16
-4.86246e-16
-4.88792e-16
-4.91146e-16
-4.92408e-16
-4.95207e-16
-4.97021e-16
-4.99526e-16
-5.0156e-16
-5.03858e-16
-5.06514e-16
-5.08301e-16
-5.10718e-16
-5.12345e-16
-5.15075e-16
-5.17675e-16
-5.20606e-16
-5.23362e-16
-5.2621e-16
-5.29237e-16
-5.32194e-16
-5.34957e-16
-5.37745e-16
-5.40845e-16
-5.44085e-16
-5.47479e-16
-5.51041e-16
-5.54367e-16
-5.5799e-16
-5.61893e-16
-5.65469e-16
-5.69102e-16
-5.729e-16
-5.76756e-16
-5.81112e-16
-5.85045e-16
-5.89609e-16
-5.93866e-16
-5.97974e-16
-6.02499e-16
-6.07199e-16
-6.11851e-16
-6.16312e-16
-6.21047e-16
-6.26049e-16
-6.30739e-16
-6.35575e-16
-6.40798e-16
-6.45961e-16
-6.51264e-16
-6.5656e-16
-6.62042e-16
-6.67726e-16
-6.73436e-16
-6.79227e-16
-6.85307e-16
-6.91305e-16
-6.97644e-16
-7.03917e-16
-7.10259e-16
-7.16735e-16
-7.23187e-16
-7.29889e-16
-7.36585e-16
-7.43447e-16
-7.50467e-16
-7.57517e-16
-7.64844e-16
-7.72194e-16
-7.79632e-16
-7.87124e-16
-7.94785e-16
-8.0251e-16
-8.10461e-16
-8.18408e-16
-8.26471e-16
-8.34624e-16
-8.42885e-16
-8.51302e-16
-8.59789e-16
-8.68471e-16
-8.77243e-16
-8.8602e-16
-8.94954e-16
-9.03633e-16
-9.12604e-16
-9.21603e-16
-9.30741e-16
-9.39938e-16
-9.4921e-16
-9.58494e-16
-9.67821e-16
-9.77178e-16
-9.86221e-16
-9.95137e-16
-1.00384e-15
-1.01234e-15
-1.02068e-15
-1.02883e-15
-1.03676e-15
-1.04454e-15
-1.05212e-15
-1.05951e-15
-1.06667e-15
-1.0737e-15
-1.08053e-15
-1.0872e-15
-1.09371e-15
-1.10001e-15
-1.1061e-15
-1.11208e-15
-1.11782e-15
-1.12341e-15
-1.12879e-15
-1.13398e-15
-1.139e-15
-1.14385e-15
-1.14848e-15
-1.15293e-15
-1.15722e-15
-1.16131e-15
-1.16523e-15
-1.16897e-15
-1.17252e-15
-1.17594e-15
-1.17916e-15
-1.18214e-15
-1.18497e-15
-1.18763e-15
-1.19017e-15
-1.19248e-15
-1.19454e-15
-1.19649e-15
-1.19826e-15
-1.19983e-15
-1.20126e-15
-1.20248e-15
-1.20354e-15
-1.20443e-15
-1.20509e-15
-1.20565e-15
-1.20601e-15
)
;

boundaryField
{
    inlet
    {
        type            cyclic;
        value           nonuniform List<scalar> 
438
(
-3.10627e-10
-3.11974e-10
-3.12041e-10
-3.12107e-10
-3.12173e-10
-3.12242e-10
-3.12311e-10
-3.12379e-10
-3.12448e-10
-3.12517e-10
-3.12589e-10
-3.1266e-10
-3.12729e-10
-3.12803e-10
-3.12875e-10
-3.12946e-10
-3.1302e-10
-3.13095e-10
-3.13169e-10
-3.13243e-10
-3.1332e-10
-3.13397e-10
-3.13474e-10
-3.1355e-10
-3.13627e-10
-3.13707e-10
-3.13787e-10
-3.13866e-10
-3.13948e-10
-3.14028e-10
-3.1411e-10
-3.14193e-10
-3.14277e-10
-3.1436e-10
-3.14445e-10
-3.14532e-10
-3.14617e-10
-3.14705e-10
-3.14793e-10
-3.14883e-10
-3.14974e-10
-3.15064e-10
-3.15154e-10
-3.15247e-10
-3.15341e-10
-3.15434e-10
-3.15524e-10
-3.15617e-10
-3.15711e-10
-3.15807e-10
-3.15905e-10
-3.16009e-10
-3.16118e-10
-3.16233e-10
-3.16352e-10
-3.16467e-10
-3.16576e-10
-3.16667e-10
-3.16745e-10
-3.16807e-10
-3.16858e-10
-3.16907e-10
-3.16953e-10
-3.16999e-10
-3.17046e-10
-3.17092e-10
-3.17138e-10
-3.17184e-10
-3.17233e-10
-3.17279e-10
-3.17325e-10
-3.17371e-10
-3.17418e-10
-3.17467e-10
-3.17513e-10
-3.17559e-10
-3.17608e-10
-3.17654e-10
-3.177e-10
-3.17747e-10
-3.17795e-10
-3.17842e-10
-3.17888e-10
-3.17937e-10
-3.17983e-10
-3.18032e-10
-3.18078e-10
-3.18125e-10
-3.18174e-10
-3.1822e-10
-3.18269e-10
-3.18315e-10
-3.18364e-10
-3.18413e-10
-3.1846e-10
-3.18508e-10
-3.18557e-10
-3.18604e-10
-3.18655e-10
-3.18702e-10
-3.18751e-10
-3.18803e-10
-3.18854e-10
-3.18906e-10
-3.18958e-10
-3.19009e-10
-3.19066e-10
-3.19123e-10
-3.19183e-10
-3.19246e-10
-3.19313e-10
-3.19386e-10
-3.19465e-10
-3.19554e-10
-3.19654e-10
-3.19767e-10
-3.19899e-10
-3.20052e-10
-3.2024e-10
-3.20463e-10
-3.20734e-10
-3.21067e-10
-3.21481e-10
-3.22003e-10
-3.22665e-10
-3.23513e-10
-3.24609e-10
-3.26025e-10
-3.27868e-10
-3.30294e-10
-3.33511e-10
-3.36059e-10
-3.36173e-10
-3.35767e-10
-3.36251e-10
-3.37325e-10
-3.38193e-10
-3.38971e-10
-3.39882e-10
-3.4092e-10
-3.42044e-10
-3.4326e-10
-3.44632e-10
-3.46288e-10
-3.48355e-10
-3.50611e-10
-3.52948e-10
-3.57211e-10
-3.66815e-10
-5.47123e-10
-4.18131e-08
-9.31851e-08
-1.04726e-07
-1.08095e-07
-1.08818e-07
-1.08289e-07
-1.07e-07
-1.05186e-07
-1.02982e-07
-1.00477e-07
-9.77384e-08
-9.48151e-08
-9.17466e-08
-8.85644e-08
-8.52941e-08
-8.19568e-08
-7.85703e-08
-7.51493e-08
-7.17067e-08
-6.82536e-08
-6.47995e-08
-6.13531e-08
-5.79222e-08
-5.45138e-08
-5.11347e-08
-4.77909e-08
-4.44885e-08
-4.12333e-08
-3.80309e-08
-3.4887e-08
-3.18073e-08
-2.87975e-08
-2.58638e-08
-2.30121e-08
-2.02489e-08
-1.75807e-08
-1.50144e-08
-1.2557e-08
-1.02159e-08
-7.99831e-09
-5.91152e-09
-3.96258e-09
-2.158e-09
-5.03478e-10
9.96521e-10
2.33917e-09
3.52367e-09
4.55159e-09
5.42702e-09
6.15653e-09
6.7489e-09
7.21466e-09
7.56547e-09
7.81349e-09
7.97079e-09
8.04888e-09
8.05842e-09
8.00903e-09
7.90928e-09
7.76671e-09
7.5879e-09
7.37863e-09
7.14393e-09
6.88823e-09
6.61546e-09
6.32908e-09
6.03221e-09
5.72764e-09
5.4179e-09
5.10527e-09
4.79183e-09
4.47946e-09
4.16988e-09
3.86465e-09
3.56519e-09
3.27276e-09
2.98853e-09
2.71351e-09
2.4486e-09
2.19459e-09
1.95214e-09
1.72181e-09
1.50404e-09
1.29918e-09
1.10745e-09
9.28976e-10
7.63792e-10
6.11827e-10
4.72922e-10
3.46835e-10
2.33242e-10
1.31751e-10
4.19035e-11
-3.6811e-11
-1.04951e-10
-1.63112e-10
-2.11918e-10
-2.52014e-10
-2.84055e-10
-3.08702e-10
-3.26611e-10
-3.38432e-10
-3.44796e-10
-3.46318e-10
-3.43587e-10
-3.37165e-10
-3.27587e-10
-3.15352e-10
-3.00929e-10
-2.84751e-10
-2.67219e-10
-2.48696e-10
-2.29513e-10
-2.09966e-10
-1.90319e-10
-1.70805e-10
-1.51624e-10
-1.32949e-10
-1.14925e-10
-9.76715e-11
-8.12832e-11
-6.58332e-11
-5.13742e-11
-3.79402e-11
-2.55488e-11
-1.42028e-11
-3.89189e-12
5.40528e-12
1.37198e-11
2.10906e-11
2.75632e-11
3.31881e-11
3.80197e-11
4.21151e-11
4.55327e-11
4.83317e-11
5.05711e-11
5.23087e-11
5.36011e-11
5.45024e-11
5.50644e-11
5.53358e-11
5.53625e-11
5.51867e-11
5.48473e-11
5.43799e-11
5.38163e-11
5.31851e-11
5.25113e-11
5.18169e-11
5.15679e-11
5.20967e-11
5.26356e-11
5.32016e-11
5.38116e-11
5.44826e-11
5.52315e-11
5.6074e-11
5.70253e-11
5.80988e-11
5.93064e-11
6.06581e-11
6.21616e-11
6.38223e-11
6.56434e-11
6.76255e-11
6.9767e-11
7.20641e-11
7.45112e-11
7.71011e-11
7.98255e-11
8.26753e-11
8.5641e-11
8.87135e-11
9.18839e-11
9.51445e-11
9.84885e-11
1.01911e-10
1.05407e-10
1.08974e-10
1.12611e-10
1.16317e-10
1.20091e-10
1.23933e-10
1.27842e-10
1.31817e-10
1.35854e-10
1.39951e-10
1.44099e-10
1.48291e-10
1.52516e-10
1.56761e-10
1.61012e-10
1.65251e-10
1.69459e-10
1.73613e-10
1.7769e-10
1.81662e-10
1.855e-10
1.89172e-10
1.92642e-10
1.95872e-10
1.98819e-10
2.01439e-10
2.03683e-10
2.05497e-10
2.06825e-10
2.07609e-10
2.07783e-10
2.07284e-10
2.06041e-10
2.03984e-10
2.01042e-10
1.97142e-10
1.92215e-10
1.86194e-10
1.79018e-10
1.70638e-10
1.61018e-10
1.50144e-10
1.38031e-10
1.24738e-10
1.10377e-10
9.51432e-11
7.9334e-11
6.33877e-11
4.79161e-11
3.37149e-11
2.16855e-11
1.25726e-11
6.55889e-12
3.11668e-12
1.37287e-12
5.68421e-13
2.22947e-13
8.31123e-14
2.94714e-14
9.92775e-15
3.15053e-15
9.87377e-16
3.03086e-16
9.16553e-17
2.80406e-17
9.02383e-18
3.70349e-18
2.39106e-18
1.90083e-18
1.96122e-18
1.83513e-18
2.02781e-18
1.95142e-18
1.96946e-18
1.8294e-18
1.78824e-18
1.53799e-18
1.41185e-18
1.19455e-18
1.29521e-18
1.22791e-18
7.40379e-19
5.11635e-19
1.19651e-19
-3.59792e-19
-2.82027e-19
1.91392e-19
1.01485e-18
1.11541e-18
1.18853e-18
1.01183e-18
1.28138e-18
1.43531e-18
1.27117e-18
1.19179e-18
1.15248e-18
1.06322e-18
6.88409e-19
6.37926e-19
5.26484e-19
3.21e-19
7.54974e-19
1.15963e-18
1.29215e-18
1.21899e-18
1.24191e-18
1.16802e-18
1.08021e-18
8.12601e-19
6.27386e-19
)
;
    }
    outlet
    {
        type            cyclic;
        value           nonuniform List<scalar> 
438
(
3.10627e-10
3.11974e-10
3.12041e-10
3.12107e-10
3.12173e-10
3.12242e-10
3.12311e-10
3.12379e-10
3.12448e-10
3.12517e-10
3.12589e-10
3.1266e-10
3.12729e-10
3.12803e-10
3.12875e-10
3.12946e-10
3.1302e-10
3.13095e-10
3.13169e-10
3.13243e-10
3.1332e-10
3.13397e-10
3.13474e-10
3.1355e-10
3.13627e-10
3.13707e-10
3.13787e-10
3.13866e-10
3.13948e-10
3.14028e-10
3.1411e-10
3.14193e-10
3.14277e-10
3.1436e-10
3.14445e-10
3.14532e-10
3.14617e-10
3.14705e-10
3.14793e-10
3.14883e-10
3.14974e-10
3.15064e-10
3.15154e-10
3.15247e-10
3.15341e-10
3.15434e-10
3.15524e-10
3.15617e-10
3.15711e-10
3.15807e-10
3.15905e-10
3.16009e-10
3.16118e-10
3.16233e-10
3.16352e-10
3.16467e-10
3.16576e-10
3.16667e-10
3.16745e-10
3.16807e-10
3.16858e-10
3.16907e-10
3.16953e-10
3.16999e-10
3.17046e-10
3.17092e-10
3.17138e-10
3.17184e-10
3.17233e-10
3.17279e-10
3.17325e-10
3.17371e-10
3.17418e-10
3.17467e-10
3.17513e-10
3.17559e-10
3.17608e-10
3.17654e-10
3.177e-10
3.17747e-10
3.17795e-10
3.17842e-10
3.17888e-10
3.17937e-10
3.17983e-10
3.18032e-10
3.18078e-10
3.18125e-10
3.18174e-10
3.1822e-10
3.18269e-10
3.18315e-10
3.18364e-10
3.18413e-10
3.1846e-10
3.18508e-10
3.18557e-10
3.18604e-10
3.18655e-10
3.18702e-10
3.18751e-10
3.18803e-10
3.18854e-10
3.18906e-10
3.18958e-10
3.19009e-10
3.19066e-10
3.19123e-10
3.19183e-10
3.19246e-10
3.19313e-10
3.19386e-10
3.19465e-10
3.19554e-10
3.19654e-10
3.19767e-10
3.19899e-10
3.20052e-10
3.2024e-10
3.20463e-10
3.20734e-10
3.21067e-10
3.21481e-10
3.22003e-10
3.22665e-10
3.23513e-10
3.24609e-10
3.26025e-10
3.27868e-10
3.30294e-10
3.33511e-10
3.36059e-10
3.36173e-10
3.35767e-10
3.36251e-10
3.37325e-10
3.38193e-10
3.38971e-10
3.39882e-10
3.4092e-10
3.42044e-10
3.4326e-10
3.44632e-10
3.46288e-10
3.48355e-10
3.50611e-10
3.52948e-10
3.57211e-10
3.66815e-10
5.47123e-10
4.18131e-08
9.31851e-08
1.04726e-07
1.08095e-07
1.08818e-07
1.08289e-07
1.07e-07
1.05186e-07
1.02982e-07
1.00477e-07
9.77384e-08
9.48151e-08
9.17466e-08
8.85644e-08
8.52941e-08
8.19568e-08
7.85703e-08
7.51493e-08
7.17067e-08
6.82536e-08
6.47995e-08
6.13531e-08
5.79222e-08
5.45138e-08
5.11347e-08
4.77909e-08
4.44885e-08
4.12333e-08
3.80309e-08
3.4887e-08
3.18073e-08
2.87975e-08
2.58638e-08
2.30121e-08
2.02489e-08
1.75807e-08
1.50144e-08
1.2557e-08
1.02159e-08
7.99831e-09
5.91152e-09
3.96258e-09
2.158e-09
5.03478e-10
-9.96521e-10
-2.33917e-09
-3.52367e-09
-4.55159e-09
-5.42702e-09
-6.15653e-09
-6.7489e-09
-7.21466e-09
-7.56547e-09
-7.81349e-09
-7.97079e-09
-8.04888e-09
-8.05842e-09
-8.00903e-09
-7.90928e-09
-7.76671e-09
-7.5879e-09
-7.37863e-09
-7.14393e-09
-6.88823e-09
-6.61546e-09
-6.32908e-09
-6.03221e-09
-5.72764e-09
-5.4179e-09
-5.10527e-09
-4.79183e-09
-4.47946e-09
-4.16988e-09
-3.86465e-09
-3.56519e-09
-3.27276e-09
-2.98853e-09
-2.71351e-09
-2.4486e-09
-2.19459e-09
-1.95214e-09
-1.72181e-09
-1.50404e-09
-1.29918e-09
-1.10745e-09
-9.28976e-10
-7.63792e-10
-6.11827e-10
-4.72922e-10
-3.46835e-10
-2.33242e-10
-1.31751e-10
-4.19035e-11
3.6811e-11
1.04951e-10
1.63112e-10
2.11918e-10
2.52014e-10
2.84055e-10
3.08702e-10
3.26611e-10
3.38432e-10
3.44796e-10
3.46318e-10
3.43587e-10
3.37165e-10
3.27587e-10
3.15352e-10
3.00929e-10
2.84751e-10
2.67219e-10
2.48696e-10
2.29513e-10
2.09966e-10
1.90319e-10
1.70805e-10
1.51624e-10
1.32949e-10
1.14925e-10
9.76715e-11
8.12832e-11
6.58332e-11
5.13742e-11
3.79402e-11
2.55488e-11
1.42028e-11
3.89189e-12
-5.40528e-12
-1.37198e-11
-2.10906e-11
-2.75632e-11
-3.31881e-11
-3.80197e-11
-4.21151e-11
-4.55327e-11
-4.83317e-11
-5.05711e-11
-5.23087e-11
-5.36011e-11
-5.45024e-11
-5.50644e-11
-5.53358e-11
-5.53625e-11
-5.51867e-11
-5.48473e-11
-5.43799e-11
-5.38163e-11
-5.31851e-11
-5.25113e-11
-5.18169e-11
-5.15679e-11
-5.20967e-11
-5.26356e-11
-5.32016e-11
-5.38116e-11
-5.44826e-11
-5.52315e-11
-5.6074e-11
-5.70253e-11
-5.80988e-11
-5.93064e-11
-6.06581e-11
-6.21616e-11
-6.38223e-11
-6.56434e-11
-6.76255e-11
-6.9767e-11
-7.20641e-11
-7.45112e-11
-7.71011e-11
-7.98255e-11
-8.26753e-11
-8.5641e-11
-8.87135e-11
-9.18839e-11
-9.51445e-11
-9.84885e-11
-1.01911e-10
-1.05407e-10
-1.08974e-10
-1.12611e-10
-1.16317e-10
-1.20091e-10
-1.23933e-10
-1.27842e-10
-1.31817e-10
-1.35854e-10
-1.39951e-10
-1.44099e-10
-1.48291e-10
-1.52516e-10
-1.56761e-10
-1.61012e-10
-1.65251e-10
-1.69459e-10
-1.73613e-10
-1.7769e-10
-1.81662e-10
-1.855e-10
-1.89172e-10
-1.92642e-10
-1.95872e-10
-1.98819e-10
-2.01439e-10
-2.03683e-10
-2.05497e-10
-2.06825e-10
-2.07609e-10
-2.07783e-10
-2.07284e-10
-2.06041e-10
-2.03984e-10
-2.01042e-10
-1.97142e-10
-1.92215e-10
-1.86194e-10
-1.79018e-10
-1.70638e-10
-1.61018e-10
-1.50144e-10
-1.38031e-10
-1.24738e-10
-1.10377e-10
-9.51432e-11
-7.9334e-11
-6.33877e-11
-4.79161e-11
-3.37149e-11
-2.16855e-11
-1.25726e-11
-6.55889e-12
-3.11668e-12
-1.37287e-12
-5.68421e-13
-2.22947e-13
-8.31123e-14
-2.94714e-14
-9.92776e-15
-3.15058e-15
-9.87377e-16
-3.03086e-16
-9.16553e-17
-2.80406e-17
-9.02383e-18
-3.70349e-18
-2.38582e-18
-1.90083e-18
-1.96122e-18
-1.91156e-18
-2.04108e-18
-1.9854e-18
-1.96946e-18
-1.80284e-18
-1.78824e-18
-1.53799e-18
-1.37878e-18
-1.19455e-18
-1.27288e-18
-1.24323e-18
-7.40379e-19
-5.09558e-19
-1.19651e-19
3.30019e-19
2.82027e-19
-1.91392e-19
-1.01556e-18
-1.11541e-18
-1.18853e-18
-1.01183e-18
-1.24698e-18
-1.41865e-18
-1.30738e-18
-1.20482e-18
-1.15248e-18
-1.00454e-18
-6.88409e-19
-7.17149e-19
-5.23785e-19
-3.21e-19
-7.78898e-19
-1.14906e-18
-1.31153e-18
-1.21899e-18
-1.24191e-18
-1.20617e-18
-1.05102e-18
-8.12601e-19
-6.27386e-19
)
;
    }
    top
    {
        type            symmetryPlane;
        value           uniform 0;
    }
    bottom
    {
        type            fixedValue;
        value           uniform 0;
    }
    frontAndBackPlanes
    {
        type            empty;
        value           nonuniform 0();
    }
}


// ************************************************************************* //
