/*--------------------------------*- C++ -*----------------------------------*\
| =========                 |                                                 |
| \\      /  F ield         | OpenFOAM: The Open Source CFD Toolbox           |
|  \\    /   O peration     | Version:  2.4.0                                 |
|   \\  /    A nd           | Web:      www.OpenFOAM.org                      |
|    \\/     M anipulation  |                                                 |
\*---------------------------------------------------------------------------*/
FoamFile
{
    version     2.0;
    format      ascii;
    class       volTensorField;
    location    "250";
    object      Tauf;
}
// * * * * * * * * * * * * * * * * * * * * * * * * * * * * * * * * * * * * * //

dimensions      [0 2 -2 0 0 0 0];

internalField   nonuniform List<tensor> 
438
(
(0 6.22602e-07 0 6.22602e-07 1.02863e-11 0 0 0 0)
(0 1.41323e-09 0 1.41323e-09 1.02604e-11 0 0 0 0)
(0 1.32397e-10 0 1.32397e-10 1.02114e-11 0 0 0 0)
(0 1.32357e-10 0 1.32357e-10 1.01605e-11 0 0 0 0)
(-2.24777e-25 1.34986e-10 0 1.34986e-10 1.01132e-11 0 0 0 0)
(-2.24777e-25 1.37588e-10 0 1.37588e-10 1.00697e-11 0 0 0 0)
(-4.49555e-25 1.37636e-10 0 1.37636e-10 1.00268e-11 0 0 0 0)
(0 1.37657e-10 0 1.37657e-10 9.98081e-12 0 0 0 0)
(0 1.37705e-10 0 1.37705e-10 9.93161e-12 0 0 0 0)
(0 1.40324e-10 0 1.40324e-10 9.88195e-12 0 0 0 0)
(-6.74332e-25 1.42913e-10 0 1.42913e-10 9.83891e-12 0 0 0 0)
(0 1.40416e-10 0 1.40416e-10 9.79063e-12 0 0 0 0)
(-2.24777e-25 1.43015e-10 0 1.43015e-10 9.73775e-12 0 0 0 0)
(2.24777e-25 1.45612e-10 0 1.45612e-10 9.69253e-12 0 0 0 0)
(0 1.43115e-10 0 1.43115e-10 9.64151e-12 0 0 0 0)
(0 1.45712e-10 0 1.45712e-10 9.58644e-12 0 0 0 0)
(0 1.4834e-10 0 1.4834e-10 9.53715e-12 0 0 0 0)
(-4.49555e-25 1.48388e-10 0 1.48388e-10 9.48728e-12 0 0 0 0)
(0 1.48436e-10 0 1.48436e-10 9.43316e-12 0 0 0 0)
(0 1.51065e-10 0 1.51065e-10 9.37926e-12 0 0 0 0)
(0 1.53695e-10 0 1.53695e-10 9.32948e-12 0 0 0 0)
(-2.24777e-25 1.53751e-10 0 1.53751e-10 9.27892e-12 0 0 0 0)
(0 1.53783e-10 0 1.53783e-10 9.22524e-12 0 0 0 0)
(-2.24777e-25 1.53839e-10 0 1.53839e-10 9.16786e-12 0 0 0 0)
(0 1.56476e-10 0 1.56476e-10 9.11007e-12 0 0 0 0)
(-2.24777e-25 1.59109e-10 0 1.59109e-10 9.05644e-12 0 0 0 0)
(0 1.59186e-10 0 1.59186e-10 9.00053e-12 0 0 0 0)
(0 1.61805e-10 0 1.61805e-10 8.94523e-12 0 0 0 0)
(-2.24777e-25 1.61864e-10 0 1.61864e-10 8.89012e-12 0 0 0 0)
(-2.24777e-25 1.61922e-10 0 1.61922e-10 8.83023e-12 0 0 0 0)
(0 1.64567e-10 0 1.64567e-10 8.77006e-12 0 0 0 0)
(0 1.67217e-10 0 1.67217e-10 8.71318e-12 0 0 0 0)
(0 1.67269e-10 0 1.67269e-10 8.65569e-12 0 0 0 0)
(0 1.67353e-10 0 1.67353e-10 8.59216e-12 0 0 0 0)
(0 1.72574e-10 0 1.72574e-10 8.53356e-12 0 0 0 0)
(2.24777e-25 1.72656e-10 0 1.72656e-10 8.47661e-12 0 0 0 0)
(0 1.72716e-10 0 1.72716e-10 8.41447e-12 0 0 0 0)
(0 1.75371e-10 0 1.75371e-10 8.35256e-12 0 0 0 0)
(-2.24777e-25 1.78051e-10 0 1.78051e-10 8.29198e-12 0 0 0 0)
(0 1.80711e-10 0 1.80711e-10 8.23359e-12 0 0 0 0)
(0 1.80777e-10 0 1.80777e-10 8.17414e-12 0 0 0 0)
(-2.24777e-25 1.80845e-10 0 1.80845e-10 8.11008e-12 0 0 0 0)
(2.24777e-25 1.83516e-10 0 1.83516e-10 8.04526e-12 0 0 0 0)
(0 1.86191e-10 0 1.86191e-10 7.98219e-12 0 0 0 0)
(0 1.86247e-10 0 1.86247e-10 7.91839e-12 0 0 0 0)
(0 1.83702e-10 0 1.83702e-10 7.84736e-12 0 0 0 0)
(-2.24777e-25 1.8376e-10 0 1.8376e-10 7.77011e-12 0 0 0 0)
(0 1.86433e-10 0 1.86433e-10 7.69247e-12 0 0 0 0)
(0 1.89135e-10 0 1.89135e-10 7.6148e-12 0 0 0 0)
(-2.24777e-25 1.9445e-10 0 1.9445e-10 7.54014e-12 0 0 0 0)
(4.49555e-25 2.02408e-10 0 2.02408e-10 7.47293e-12 0 0 0 0)
(-2.24777e-25 2.12991e-10 0 2.12991e-10 7.41821e-12 0 0 0 0)
(-2.24777e-25 2.23612e-10 0 2.23612e-10 7.37605e-12 0 0 0 0)
(0 2.34191e-10 0 2.34191e-10 7.35033e-12 0 0 0 0)
(0 2.34297e-10 0 2.34297e-10 7.3293e-12 0 0 0 0)
(-2.24777e-25 2.23835e-10 0 2.23835e-10 7.29783e-12 0 0 0 0)
(0 2.00202e-10 0 2.00202e-10 7.23594e-12 0 0 0 0)
(0 1.68666e-10 0 1.68666e-10 7.12409e-12 0 0 0 0)
(4.49555e-25 1.39684e-10 0 1.39684e-10 6.96178e-12 0 0 0 0)
(0 1.13391e-10 0 1.13391e-10 6.74728e-12 0 0 0 0)
(0 1.00207e-10 0 1.00207e-10 6.49695e-12 0 0 0 0)
(0 9.49386e-11 0 9.49386e-11 6.22799e-12 0 0 0 0)
(-2.24777e-25 9.23238e-11 0 9.23238e-11 5.94778e-12 0 0 0 0)
(0 9.23268e-11 0 9.23268e-11 5.66359e-12 0 0 0 0)
(0 9.234e-11 0 9.234e-11 5.3778e-12 0 0 0 0)
(0 9.23469e-11 0 9.23469e-11 5.09126e-12 0 0 0 0)
(0 9.23728e-11 0 9.23728e-11 4.80259e-12 0 0 0 0)
(0 9.50043e-11 0 9.50043e-11 4.51674e-12 0 0 0 0)
(0 9.50125e-11 0 9.50125e-11 4.23255e-12 0 0 0 0)
(0 9.24017e-11 0 9.24017e-11 3.94413e-12 0 0 0 0)
(0 9.23952e-11 0 9.23952e-11 3.6547e-12 0 0 0 0)
(0 9.24245e-11 0 9.24245e-11 3.36283e-12 0 0 0 0)
(0 9.50587e-11 0 9.50587e-11 3.07349e-12 0 0 0 0)
(0 9.50641e-11 0 9.50641e-11 2.78603e-12 0 0 0 0)
(0 9.24665e-11 0 9.24665e-11 2.49295e-12 0 0 0 0)
(-2.24777e-25 9.50892e-11 0 9.50892e-11 2.2022e-12 0 0 0 0)
(0 9.51008e-11 0 9.51008e-11 1.91266e-12 0 0 0 0)
(0 9.24835e-11 0 9.24835e-11 1.61898e-12 0 0 0 0)
(0 9.24963e-11 0 9.24963e-11 1.32273e-12 0 0 0 0)
(0 9.51375e-11 0 9.51375e-11 1.02895e-12 0 0 0 0)
(0 9.51432e-11 0 9.51432e-11 7.36652e-13 0 0 0 0)
(0 9.25423e-11 0 9.25423e-11 4.38864e-13 0 0 0 0)
(0 9.5166e-11 0 9.5166e-11 1.43768e-13 0 0 0 0)
(0 9.51932e-11 0 9.51932e-11 -1.51688e-13 0 0 0 0)
(0 9.52054e-11 0 9.52054e-11 -4.47988e-13 0 0 0 0)
(0 9.51986e-11 0 9.51986e-11 -7.42945e-13 0 0 0 0)
(0 9.25982e-11 0 9.25982e-11 -1.04367e-12 0 0 0 0)
(0 9.5225e-11 0 9.5225e-11 -1.342e-12 0 0 0 0)
(0 9.52519e-11 0 9.52519e-11 -1.64072e-12 0 0 0 0)
(-2.24777e-25 9.52616e-11 0 9.52616e-11 -1.93997e-12 0 0 0 0)
(0 9.52701e-11 0 9.52701e-11 -2.2393e-12 0 0 0 0)
(0 9.53005e-11 0 9.53005e-11 -2.54094e-12 0 0 0 0)
(0 9.7928e-11 0 9.7928e-11 -2.83822e-12 0 0 0 0)
(0 9.53194e-11 0 9.53194e-11 -3.13885e-12 0 0 0 0)
(0 9.53342e-11 0 9.53342e-11 -3.44196e-12 0 0 0 0)
(0 9.79638e-11 0 9.79638e-11 -3.74063e-12 0 0 0 0)
(0 9.53709e-11 0 9.53709e-11 -4.04449e-12 0 0 0 0)
(0 9.80049e-11 0 9.80049e-11 -4.34597e-12 0 0 0 0)
(0 9.80118e-11 0 9.80118e-11 -4.64568e-12 0 0 0 0)
(0 9.54154e-11 0 9.54154e-11 -4.95181e-12 0 0 0 0)
(0 1.00699e-10 0 1.00699e-10 -5.2533e-12 0 0 0 0)
(0 1.03376e-10 0 1.03376e-10 -5.55122e-12 0 0 0 0)
(0 1.03397e-10 0 1.03397e-10 -5.84873e-12 0 0 0 0)
(0 1.03405e-10 0 1.03405e-10 -6.1455e-12 0 0 0 0)
(0 1.03443e-10 0 1.03443e-10 -6.44471e-12 0 0 0 0)
(0 1.08759e-10 0 1.08759e-10 -6.74028e-12 0 0 0 0)
(-2.24777e-25 1.14085e-10 0 1.14085e-10 -7.02949e-12 0 0 0 0)
(0 1.16782e-10 0 1.16782e-10 -7.31606e-12 0 0 0 0)
(0 1.22119e-10 0 1.22119e-10 -7.59782e-12 0 0 0 0)
(0 1.30128e-10 0 1.30128e-10 -7.87264e-12 0 0 0 0)
(0 1.40787e-10 0 1.40787e-10 -8.13629e-12 0 0 0 0)
(-2.24777e-25 1.51486e-10 0 1.51486e-10 -8.38967e-12 0 0 0 0)
(0 1.67501e-10 0 1.67501e-10 -8.62839e-12 0 0 0 0)
(0 1.88845e-10 0 1.88845e-10 -8.84562e-12 0 0 0 0)
(-2.24777e-25 2.12906e-10 0 2.12906e-10 -9.03975e-12 0 0 0 0)
(0 2.44963e-10 0 2.44963e-10 -9.203e-12 0 0 0 0)
(-2.24777e-25 2.85102e-10 0 2.85102e-10 -9.33039e-12 0 0 0 0)
(0 3.41276e-10 0 3.41276e-10 -9.40794e-12 0 0 0 0)
(0 4.10903e-10 0 4.10903e-10 -9.42206e-12 0 0 0 0)
(0 4.94092e-10 0 4.94092e-10 -9.36586e-12 0 0 0 0)
(0 6.04211e-10 0 6.04211e-10 -9.22176e-12 0 0 0 0)
(0 7.46854e-10 0 7.46854e-10 -8.97231e-12 0 0 0 0)
(0 9.35653e-10 0 9.35653e-10 -8.59543e-12 0 0 0 0)
(0 1.18449e-09 0 1.18449e-09 -8.0667e-12 0 0 0 0)
(0 1.51029e-09 0 1.51029e-09 -7.36803e-12 0 0 0 0)
(0 1.94391e-09 0 1.94391e-09 -6.48189e-12 0 0 0 0)
(0 2.51185e-09 0 2.51185e-09 -5.4089e-12 0 0 0 0)
(-2.24777e-25 3.2584e-09 0 3.2584e-09 -4.181e-12 0 0 0 0)
(-2.24777e-25 4.26891e-09 0 4.26891e-09 -2.8814e-12 0 0 0 0)
(-2.24777e-25 5.64316e-09 0 5.64316e-09 -1.2651e-12 0 0 0 0)
(0 5.76499e-09 0 5.76499e-09 6.04595e-13 0 0 0 0)
(0 2.66228e-09 0 2.66228e-09 1.55717e-12 0 0 0 0)
(0 -2.9198e-10 0 -2.9198e-10 1.57785e-12 0 0 0 0)
(-2.24777e-25 7.80989e-11 0 7.80989e-11 1.47667e-12 0 0 0 0)
(0 1.55864e-09 0 1.55864e-09 1.32346e-12 0 0 0 0)
(0 1.94222e-09 0 1.94222e-09 1.10069e-12 0 0 0 0)
(0 1.64515e-09 0 1.64515e-09 8.86932e-13 0 0 0 0)
(0 1.68835e-09 0 1.68835e-09 7.62682e-13 0 0 0 0)
(2.24777e-25 1.94949e-09 0 1.94949e-09 6.2643e-13 0 0 0 0)
(0 2.16205e-09 0 2.16205e-09 4.57775e-13 0 0 0 0)
(0 2.33965e-09 0 2.33965e-09 2.77142e-13 0 0 0 0)
(0 2.58771e-09 0 2.58771e-09 7.35369e-14 0 0 0 0)
(2.24777e-25 3.02793e-09 0 3.02793e-09 -1.60659e-13 0 0 0 0)
(-2.24777e-25 3.72346e-09 0 3.72346e-09 2.35114e-12 0 0 0 0)
(0 4.3237e-09 0 4.3237e-09 -4.67808e-11 0 0 0 0)
(0 4.59256e-09 0 4.59256e-09 2.1019e-10 0 0 0 0)
(0 6.60004e-09 0 6.60004e-09 -5.72865e-10 0 0 0 0)
(0 1.38675e-08 0 1.38675e-08 1.72872e-09 0 0 0 0)
(0 1.89942e-07 0 1.89942e-07 -5.50043e-09 0 0 0 0)
(0 4.17062e-05 0 4.17062e-05 4.33936e-09 0 0 0 0)
(4.05149e-23 0.000130449 0 0.000130449 3.81624e-08 0 0 0 0)
(0 0.000331332 0 0.000331332 -9.61603e-08 0 0 0 0)
(0 0.000189625 0 0.000189625 -1.75773e-07 0 0 0 0)
(0 8.56945e-05 0 8.56945e-05 1.61899e-07 0 0 0 0)
(0 5.44756e-06 0 5.44756e-06 -1.57857e-07 0 0 0 0)
(0 -6.2023e-05 0 -6.2023e-05 1.10985e-07 0 0 0 0)
(0 -0.000121213 0 -0.000121213 -5.39466e-08 0 0 0 0)
(0 -0.000173827 0 -0.000173827 3.13697e-08 0 0 0 0)
(-2.69668e-21 -0.00022067 0 -0.00022067 -1.41005e-08 0 0 0 0)
(0 -0.000262241 0 -0.000262241 5.14675e-09 0 0 0 0)
(0 -0.000298933 0 -0.000298933 -2.08507e-09 0 0 0 0)
(0 -0.000331091 0 -0.000331091 8.22475e-10 0 0 0 0)
(0 -0.000359031 0 -0.000359031 -3.11764e-10 0 0 0 0)
(-3.41593e-21 -0.000383042 0 -0.000383042 1.14154e-10 0 0 0 0)
(0 -0.000403388 0 -0.000403388 -4.04943e-11 0 0 0 0)
(0 -0.000420312 0 -0.000420312 1.39405e-11 0 0 0 0)
(-3.66886e-21 -0.000434038 0 -0.000434038 -4.66395e-12 0 0 0 0)
(-3.72887e-21 -0.000444767 0 -0.000444767 1.506e-12 0 0 0 0)
(-3.77753e-21 -0.000452687 0 -0.000452687 -5.25585e-13 0 0 0 0)
(0 -0.000457971 0 -0.000457971 2.05731e-13 0 0 0 0)
(0 -0.00046078 0 -0.00046078 -2.95972e-14 0 0 0 0)
(0 -0.000461264 0 -0.000461264 -9.28127e-15 0 0 0 0)
(0 -0.000459564 0 -0.000459564 -1.60712e-15 0 0 0 0)
(0 -0.000455815 0 -0.000455815 -3.27558e-16 0 0 0 0)
(0 -0.000450147 0 -0.000450147 -5.19608e-16 0 0 0 0)
(0 -0.000442683 0 -0.000442683 -6.34243e-16 0 0 0 0)
(0 -0.000433545 0 -0.000433545 -6.74367e-16 0 0 0 0)
(0 -0.000422852 0 -0.000422852 -6.94689e-16 0 0 0 0)
(0 -0.00041072 0 -0.00041072 -6.4557e-16 0 0 0 0)
(0 -0.000397267 0 -0.000397267 -6.50208e-16 0 0 0 0)
(0 -0.00038261 0 -0.00038261 -6.50099e-16 0 0 0 0)
(-8.87977e-22 -0.000366869 0 -0.000366869 -6.20775e-16 0 0 0 0)
(0 -0.000350164 0 -0.000350164 -6.84241e-16 0 0 0 0)
(0 -0.000332619 0 -0.000332619 -6.96505e-16 0 0 0 0)
(0 -0.000314363 0 -0.000314363 -6.16552e-16 0 0 0 0)
(-8.12187e-22 -0.000295527 0 -0.000295527 -5.88129e-16 0 0 0 0)
(7.9107e-22 -0.000276248 0 -0.000276248 -5.54461e-16 0 0 0 0)
(0 -0.00025667 0 -0.00025667 -4.77342e-16 0 0 0 0)
(0 -0.00023694 0 -0.00023694 -3.30879e-16 0 0 0 0)
(0 -0.000217211 0 -0.000217211 -2.37601e-16 0 0 0 0)
(0 -0.00019764 0 -0.00019764 -3.28492e-16 0 0 0 0)
(0 -0.000178386 0 -0.000178386 -4.258e-16 0 0 0 0)
(0 -0.000159608 0 -0.000159608 -4.61341e-16 0 0 0 0)
(-2.01598e-23 -0.000141461 0 -0.000141461 -5.12647e-16 0 0 0 0)
(-3.9249e-23 -0.000124091 0 -0.000124091 -5.89828e-16 0 0 0 0)
(7.65837e-23 -0.000107628 0 -0.000107628 -5.94203e-16 0 0 0 0)
(-7.49252e-23 -9.21838e-05 0 -9.21838e-05 -4.30675e-16 0 0 0 0)
(1.47086e-22 -7.78429e-05 0 -7.78429e-05 -2.06099e-16 0 0 0 0)
(0 -6.46602e-05 0 -6.46602e-05 -1.66763e-16 0 0 0 0)
(0 -5.26588e-05 0 -5.26588e-05 -3.00073e-16 0 0 0 0)
(0 -4.18309e-05 0 -4.18309e-05 -3.94972e-16 0 0 0 0)
(0 -3.21419e-05 0 -3.21419e-05 -3.74185e-16 0 0 0 0)
(0 -2.35355e-05 0 -2.35355e-05 -3.28929e-16 0 0 0 0)
(0 -1.59406e-05 0 -1.59406e-05 -5.59716e-16 0 0 0 0)
(0 -9.27774e-06 0 -9.27774e-06 -8.83542e-16 0 0 0 0)
(0 -3.46427e-06 0 -3.46427e-06 -7.60863e-16 0 0 0 0)
(0 1.58091e-06 0 1.58091e-06 -4.56266e-16 0 0 0 0)
(0 5.93469e-06 0 5.93469e-06 -3.92277e-16 0 0 0 0)
(0 9.66802e-06 0 9.66802e-06 -4.25176e-16 0 0 0 0)
(0 1.28452e-05 0 1.28452e-05 -4.35615e-16 0 0 0 0)
(0 1.55238e-05 0 1.55238e-05 -4.34873e-16 0 0 0 0)
(0 1.77551e-05 0 1.77551e-05 -4.1125e-16 0 0 0 0)
(0 1.95847e-05 0 1.95847e-05 -3.78296e-16 0 0 0 0)
(-1.43273e-22 2.10531e-05 0 2.10531e-05 -3.7636e-16 0 0 0 0)
(1.42768e-22 2.21967e-05 0 2.21967e-05 -4.1125e-16 0 0 0 0)
(0 2.30481e-05 0 2.30481e-05 -4.36947e-16 0 0 0 0)
(1.41341e-22 2.36365e-05 0 2.36365e-05 -4.29032e-16 0 0 0 0)
(0 2.39889e-05 0 2.39889e-05 -3.95625e-16 0 0 0 0)
(0 2.41296e-05 0 2.41296e-05 -3.63644e-16 0 0 0 0)
(-1.38334e-22 2.40813e-05 0 2.40813e-05 -3.64482e-16 0 0 0 0)
(0 2.38647e-05 0 2.38647e-05 -3.76771e-16 0 0 0 0)
(0 2.34992e-05 0 2.34992e-05 -3.74807e-16 0 0 0 0)
(2.69116e-22 2.30027e-05 0 2.30027e-05 -3.9651e-16 0 0 0 0)
(0 2.23921e-05 0 2.23921e-05 -4.30547e-16 0 0 0 0)
(0 2.16831e-05 0 2.16831e-05 -3.97379e-16 0 0 0 0)
(0 2.08906e-05 0 2.08906e-05 -3.27086e-16 0 0 0 0)
(0 2.00283e-05 0 2.00283e-05 -3.23238e-16 0 0 0 0)
(6.36423e-23 1.91092e-05 0 1.91092e-05 -3.60307e-16 0 0 0 0)
(0 1.81455e-05 0 1.81455e-05 -3.62066e-16 0 0 0 0)
(0 1.71486e-05 0 1.71486e-05 -3.20097e-16 0 0 0 0)
(0 1.61291e-05 0 1.61291e-05 -2.88552e-16 0 0 0 0)
(-3.02919e-23 1.50967e-05 0 1.50967e-05 -2.57916e-16 0 0 0 0)
(0 1.40607e-05 0 1.40607e-05 -1.52859e-16 0 0 0 0)
(2.95386e-23 1.30294e-05 0 1.30294e-05 -8.10417e-17 0 0 0 0)
(-2.91694e-23 1.20103e-05 0 1.20103e-05 -1.65444e-16 0 0 0 0)
(0 1.10104e-05 0 1.10104e-05 -2.77296e-16 0 0 0 0)
(0 1.00356e-05 0 1.00356e-05 -2.82136e-16 0 0 0 0)
(0 9.09147e-06 0 9.09147e-06 -2.52737e-16 0 0 0 0)
(0 8.18254e-06 0 8.18254e-06 -2.60904e-16 0 0 0 0)
(0 7.31275e-06 0 7.31275e-06 -2.86479e-16 0 0 0 0)
(0 6.4853e-06 0 6.4853e-06 -3.25219e-16 0 0 0 0)
(0 5.70271e-06 0 5.70271e-06 -3.42304e-16 0 0 0 0)
(0 4.96686e-06 0 4.96686e-06 -3.1059e-16 0 0 0 0)
(0 4.27902e-06 0 4.27902e-06 -2.85734e-16 0 0 0 0)
(0 3.63985e-06 0 3.63985e-06 -2.93396e-16 0 0 0 0)
(0 3.04952e-06 0 3.04952e-06 -3.01499e-16 0 0 0 0)
(0 2.5077e-06 0 2.5077e-06 -2.89113e-16 0 0 0 0)
(0 2.01363e-06 0 2.01363e-06 -2.72875e-16 0 0 0 0)
(0 1.56617e-06 0 1.56617e-06 -2.84337e-16 0 0 0 0)
(-6.14737e-24 1.16386e-06 0 1.16386e-06 -3.13554e-16 0 0 0 0)
(0 8.04956e-07 0 8.04956e-07 -3.19702e-16 0 0 0 0)
(-6.02592e-24 4.87501e-07 0 4.87501e-07 -2.96915e-16 0 0 0 0)
(-5.96699e-24 2.09345e-07 0 2.09345e-07 -2.66426e-16 0 0 0 0)
(0 -3.1792e-08 0 -3.1792e-08 -2.51501e-16 0 0 0 0)
(-5.85219e-24 -2.38287e-07 0 -2.38287e-07 -2.5693e-16 0 0 0 0)
(0 -4.12577e-07 0 -4.12577e-07 -2.70273e-16 0 0 0 0)
(0 -5.57124e-07 0 -5.57124e-07 -2.87041e-16 0 0 0 0)
(0 -6.74391e-07 0 -6.74391e-07 -2.88286e-16 0 0 0 0)
(0 -7.66811e-07 0 -7.66811e-07 -2.89117e-16 0 0 0 0)
(0 -8.36768e-07 0 -8.36768e-07 -2.80453e-16 0 0 0 0)
(0 -8.86579e-07 0 -8.86579e-07 -2.54475e-16 0 0 0 0)
(0 -9.18475e-07 0 -9.18475e-07 -2.41327e-16 0 0 0 0)
(-2.71205e-24 -9.34594e-07 0 -9.34594e-07 -2.20516e-16 0 0 0 0)
(-2.68678e-24 -9.36962e-07 0 -9.36962e-07 -2.08118e-16 0 0 0 0)
(0 -9.27494e-07 0 -9.27494e-07 -2.36349e-16 0 0 0 0)
(-2.63718e-24 -9.0798e-07 0 -9.0798e-07 -2.48429e-16 0 0 0 0)
(0 -8.80088e-07 0 -8.80088e-07 -2.25304e-16 0 0 0 0)
(0 -8.45355e-07 0 -8.45355e-07 -2.38546e-16 0 0 0 0)
(0 -8.05191e-07 0 -8.05191e-07 -2.5219e-16 0 0 0 0)
(0 -7.60878e-07 0 -7.60878e-07 -2.29896e-16 0 0 0 0)
(0 -7.13571e-07 0 -7.13571e-07 -2.20479e-16 0 0 0 0)
(0 -6.64302e-07 0 -6.64302e-07 -2.1597e-16 0 0 0 0)
(0 -6.13986e-07 0 -6.13986e-07 -2.23741e-16 0 0 0 0)
(0 -5.6342e-07 0 -5.6342e-07 -2.32636e-16 0 0 0 0)
(0 -5.13295e-07 0 -5.13295e-07 -2.27406e-16 0 0 0 0)
(0 -4.64197e-07 0 -4.64197e-07 -2.17596e-16 0 0 0 0)
(0 -4.16619e-07 0 -4.16619e-07 -2.0147e-16 0 0 0 0)
(0 -3.70962e-07 0 -3.70962e-07 -1.87294e-16 0 0 0 0)
(0 -3.27544e-07 0 -3.27544e-07 -1.66641e-16 0 0 0 0)
(0 -2.86611e-07 0 -2.86611e-07 -1.86709e-16 0 0 0 0)
(0 -2.48339e-07 0 -2.48339e-07 -2.15653e-16 0 0 0 0)
(0 -2.12843e-07 0 -2.12843e-07 -1.88205e-16 0 0 0 0)
(0 -1.80186e-07 0 -1.80186e-07 -1.71828e-16 0 0 0 0)
(0 -1.50381e-07 0 -1.50381e-07 -1.90011e-16 0 0 0 0)
(0 -1.23404e-07 0 -1.23404e-07 -2.05664e-16 0 0 0 0)
(0 -9.91917e-08 0 -9.91917e-08 -1.82374e-16 0 0 0 0)
(0 -7.76559e-08 0 -7.76559e-08 -1.50478e-16 0 0 0 0)
(0 -5.8683e-08 0 -5.8683e-08 -1.56947e-16 0 0 0 0)
(0 -4.21409e-08 0 -4.21409e-08 -1.69571e-16 0 0 0 0)
(0 -2.78834e-08 0 -2.78834e-08 -1.84029e-16 0 0 0 0)
(0 -1.57541e-08 0 -1.57541e-08 -1.89099e-16 0 0 0 0)
(0 -5.59014e-09 0 -5.59014e-09 -1.69277e-16 0 0 0 0)
(0 2.77479e-09 0 2.77479e-09 -1.63087e-16 0 0 0 0)
(0 9.50745e-09 0 9.50745e-09 -1.73529e-16 0 0 0 0)
(0 1.47727e-08 0 1.47727e-08 -1.83109e-16 0 0 0 0)
(0 1.87316e-08 0 1.87316e-08 -1.78829e-16 0 0 0 0)
(0 2.15392e-08 0 2.15392e-08 -1.71751e-16 0 0 0 0)
(0 2.33436e-08 0 2.33436e-08 -2.36649e-16 0 0 0 0)
(0 2.4284e-08 0 2.4284e-08 -4.46953e-16 0 0 0 0)
(0 2.44892e-08 0 2.44892e-08 -4.4963e-16 0 0 0 0)
(0 2.40715e-08 0 2.40715e-08 7.83048e-17 0 0 0 0)
(9.43156e-25 2.31165e-08 0 2.31165e-08 2.40984e-16 0 0 0 0)
(0 2.16957e-08 0 2.16957e-08 -7.31344e-17 0 0 0 0)
(0 1.98856e-08 0 1.98856e-08 -1.6401e-16 0 0 0 0)
(0 1.77655e-08 0 1.77655e-08 -1.62372e-16 0 0 0 0)
(0 1.54146e-08 0 1.54146e-08 -1.54336e-16 0 0 0 0)
(0 1.29098e-08 0 1.29098e-08 -1.3719e-16 0 0 0 0)
(0 1.03244e-08 0 1.03244e-08 -1.26887e-16 0 0 0 0)
(0 7.72702e-09 0 7.72702e-09 -1.25069e-16 0 0 0 0)
(0 5.18018e-09 0 5.18018e-09 -1.38899e-16 0 0 0 0)
(0 2.73951e-09 0 2.73951e-09 -1.50411e-16 0 0 0 0)
(0 4.52803e-10 0 4.52803e-10 -1.50182e-16 0 0 0 0)
(0 -1.64063e-09 0 -1.64063e-09 -1.46024e-16 0 0 0 0)
(0 -3.51036e-09 0 -3.51036e-09 -1.43447e-16 0 0 0 0)
(0 -5.13507e-09 0 -5.13507e-09 -1.43237e-16 0 0 0 0)
(0 -6.50242e-09 0 -6.50242e-09 -1.36498e-16 0 0 0 0)
(0 -7.60873e-09 0 -7.60873e-09 -1.27043e-16 0 0 0 0)
(0 -8.45837e-09 0 -8.45837e-09 -1.24385e-16 0 0 0 0)
(0 -9.06288e-09 0 -9.06288e-09 -1.28218e-16 0 0 0 0)
(0 -9.43995e-09 0 -9.43995e-09 -1.3131e-16 0 0 0 0)
(0 -9.61213e-09 0 -9.61213e-09 -1.32668e-16 0 0 0 0)
(0 -9.60553e-09 0 -9.60553e-09 -1.30393e-16 0 0 0 0)
(0 -9.44839e-09 0 -9.44839e-09 -1.25705e-16 0 0 0 0)
(0 -9.16972e-09 0 -9.16972e-09 -1.26746e-16 0 0 0 0)
(0 -8.79798e-09 0 -8.79798e-09 -1.26726e-16 0 0 0 0)
(0 -8.35988e-09 0 -8.35988e-09 -1.19665e-16 0 0 0 0)
(0 -7.87947e-09 0 -7.87947e-09 -1.14941e-16 0 0 0 0)
(-3.89608e-25 -7.37734e-09 0 -7.37734e-09 -1.14103e-16 0 0 0 0)
(0 -6.87016e-09 0 -6.87016e-09 -1.15627e-16 0 0 0 0)
(0 -6.37049e-09 0 -6.37049e-09 -1.1588e-16 0 0 0 0)
(0 -5.88686e-09 0 -5.88686e-09 -1.13514e-16 0 0 0 0)
(0 -5.42403e-09 0 -5.42403e-09 -1.12793e-16 0 0 0 0)
(0 -4.98352e-09 0 -4.98352e-09 -1.07801e-16 0 0 0 0)
(0 -4.56422e-09 0 -4.56422e-09 -1.02568e-16 0 0 0 0)
(0 -4.16315e-09 0 -4.16315e-09 -1.03676e-16 0 0 0 0)
(0 -3.77614e-09 0 -3.77614e-09 -1.03797e-16 0 0 0 0)
(-5.5531e-25 -3.39854e-09 0 -3.39854e-09 -9.92725e-17 0 0 0 0)
(0 -3.02578e-09 0 -3.02578e-09 -9.46197e-17 0 0 0 0)
(5.13479e-25 -2.65384e-09 0 -2.65384e-09 -9.40418e-17 0 0 0 0)
(0 -2.27955e-09 0 -2.27955e-09 -9.27915e-17 0 0 0 0)
(-4.74178e-25 -1.90074e-09 0 -1.90074e-09 -8.81828e-17 0 0 0 0)
(0 -1.51625e-09 0 -1.51625e-09 -8.62733e-17 0 0 0 0)
(0 -1.12584e-09 0 -1.12584e-09 -8.64874e-17 0 0 0 0)
(0 -7.30017e-10 0 -7.30017e-10 -8.4683e-17 0 0 0 0)
(0 -3.29889e-10 0 -3.29889e-10 -8.20665e-17 0 0 0 0)
(-3.85964e-25 7.30767e-11 0 7.30767e-11 -7.98607e-17 0 0 0 0)
(0 4.77194e-10 0 4.77194e-10 -7.85652e-17 0 0 0 0)
(-3.54291e-25 8.80676e-10 0 8.80676e-10 -7.73798e-17 0 0 0 0)
(0 1.28171e-09 0 1.28171e-09 -7.51979e-17 0 0 0 0)
(0 1.67846e-09 0 1.67846e-09 -7.34394e-17 0 0 0 0)
(0 2.06908e-09 0 2.06908e-09 -7.19506e-17 0 0 0 0)
(0 2.45166e-09 0 2.45166e-09 -7.00706e-17 0 0 0 0)
(0 2.82419e-09 0 2.82419e-09 -6.83492e-17 0 0 0 0)
(0 3.18452e-09 0 3.18452e-09 -6.59196e-17 0 0 0 0)
(0 3.53032e-09 0 3.53032e-09 -6.33089e-17 0 0 0 0)
(0 3.85909e-09 0 3.85909e-09 -6.09936e-17 0 0 0 0)
(0 4.16811e-09 0 4.16811e-09 -5.87245e-17 0 0 0 0)
(0 4.45449e-09 0 4.45449e-09 -5.67419e-17 0 0 0 0)
(0 4.71516e-09 0 4.71516e-09 -5.45889e-17 0 0 0 0)
(0 4.94688e-09 0 4.94688e-09 -5.25502e-17 0 0 0 0)
(0 5.14624e-09 0 5.14624e-09 -5.05339e-17 0 0 0 0)
(0 5.30974e-09 0 5.30974e-09 -4.84473e-17 0 0 0 0)
(0 5.43378e-09 0 5.43378e-09 -4.65068e-17 0 0 0 0)
(0 5.5147e-09 0 5.5147e-09 -4.41947e-17 0 0 0 0)
(0 5.54885e-09 0 5.54885e-09 -4.16181e-17 0 0 0 0)
(0 5.5327e-09 0 5.5327e-09 -3.91933e-17 0 0 0 0)
(0 5.46288e-09 0 5.46288e-09 -3.68534e-17 0 0 0 0)
(0 5.3364e-09 0 5.3364e-09 -3.45571e-17 0 0 0 0)
(0 5.15079e-09 0 5.15079e-09 -3.22208e-17 0 0 0 0)
(0 4.90437e-09 0 4.90437e-09 -2.96862e-17 0 0 0 0)
(0 4.59662e-09 0 4.59662e-09 -2.70982e-17 0 0 0 0)
(7.78842e-26 4.22862e-09 0 4.22862e-09 -2.45752e-17 0 0 0 0)
(0 3.8037e-09 0 3.8037e-09 -2.21134e-17 0 0 0 0)
(0 3.32832e-09 0 3.32832e-09 -1.9668e-17 0 0 0 0)
(0 2.81322e-09 0 2.81322e-09 -1.72463e-17 0 0 0 0)
(0 2.275e-09 0 2.275e-09 -1.49604e-17 0 0 0 0)
(0 1.73778e-09 0 1.73778e-09 -1.2718e-17 0 0 0 0)
(0 1.23421e-09 0 1.23421e-09 -1.07079e-17 0 0 0 0)
(0 8.02244e-10 0 8.02244e-10 -9.01146e-18 0 0 0 0)
(-1.39692e-27 4.72797e-10 0 4.72797e-10 -7.67979e-18 0 0 0 0)
(0 2.52871e-10 0 2.52871e-10 -6.89594e-18 0 0 0 0)
(0 1.23706e-10 0 1.23706e-10 -6.39512e-18 0 0 0 0)
(0 5.59669e-11 0 5.59669e-11 -6.05689e-18 0 0 0 0)
(0 2.36879e-11 0 2.36879e-11 -5.85163e-18 0 0 0 0)
(0 9.46242e-12 0 9.46242e-12 -5.67721e-18 0 0 0 0)
(0 3.58499e-12 0 3.58499e-12 -5.48738e-18 0 0 0 0)
(0 1.29088e-12 0 1.29088e-12 -5.51492e-18 0 0 0 0)
(8.97801e-31 4.42371e-13 0 4.42371e-13 -5.30376e-18 0 0 0 0)
(0 1.45624e-13 0 1.45624e-13 -5.12206e-18 0 0 0 0)
(0 4.69882e-14 0 4.69882e-14 -5.17834e-18 0 0 0 0)
(0 1.47822e-14 0 1.47822e-14 -4.99524e-18 0 0 0 0)
(0 4.53887e-15 0 4.53887e-15 -4.88372e-18 0 0 0 0)
(0 1.36289e-15 0 1.36289e-15 -4.78288e-18 0 0 0 0)
(0 4.01121e-16 0 4.01121e-16 -4.66626e-18 0 0 0 0)
(0 1.10308e-16 0 1.10308e-16 -4.5599e-18 0 0 0 0)
(0 2.97417e-17 0 2.97417e-17 -4.47237e-18 0 0 0 0)
(0 6.77399e-18 0 6.77399e-18 -4.34827e-18 0 0 0 0)
(0 1.12905e-18 0 1.12905e-18 -4.23526e-18 0 0 0 0)
(0 -7.07736e-19 0 -7.07736e-19 -4.12807e-18 0 0 0 0)
(0 -1.22686e-18 0 -1.22686e-18 -4.01109e-18 0 0 0 0)
(0 1.35138e-18 0 1.35138e-18 -3.93012e-18 0 0 0 0)
(0 1.94137e-18 0 1.94137e-18 -3.83663e-18 0 0 0 0)
(0 2.2591e-18 0 2.2591e-18 -3.72707e-18 0 0 0 0)
(0 4.98014e-18 0 4.98014e-18 -3.62044e-18 0 0 0 0)
(0 5.31047e-18 0 5.31047e-18 -3.51097e-18 0 0 0 0)
(0 5.38851e-18 0 5.38851e-18 -3.40027e-18 0 0 0 0)
(0 3.06944e-18 0 3.06944e-18 -3.30237e-18 0 0 0 0)
(0 -5.92228e-19 0 -5.92228e-19 -3.21434e-18 0 0 0 0)
(0 8.36866e-18 0 8.36866e-18 -3.09383e-18 0 0 0 0)
(0 1.1421e-17 0 1.1421e-17 -2.97486e-18 0 0 0 0)
(0 1.04643e-17 0 1.04643e-17 -2.88754e-18 0 0 0 0)
(0 1.43205e-17 0 1.43205e-17 -2.77716e-18 0 0 0 0)
(0 6.84852e-18 0 6.84852e-18 -2.65563e-18 0 0 0 0)
(0 -8.56159e-18 0 -8.56159e-18 -2.5582e-18 0 0 0 0)
(0 -2.10974e-17 0 -2.10974e-17 -2.45795e-18 0 0 0 0)
(0 -1.58083e-17 0 -1.58083e-17 -2.35132e-18 0 0 0 0)
(0 -2.69551e-18 0 -2.69551e-18 -2.24873e-18 0 0 0 0)
(0 1.95608e-18 0 1.95608e-18 -2.15109e-18 0 0 0 0)
(0 -1.53209e-18 0 -1.53209e-18 -2.04605e-18 0 0 0 0)
(0 -6.29167e-18 0 -6.29167e-18 -1.94928e-18 0 0 0 0)
(0 -2.57612e-19 0 -2.57612e-19 -1.84269e-18 0 0 0 0)
(0 2.93086e-18 0 2.93086e-18 -1.71631e-18 0 0 0 0)
(0 1.36064e-18 0 1.36064e-18 -1.62066e-18 0 0 0 0)
(0 2.58032e-18 0 2.58032e-18 -1.50955e-18 0 0 0 0)
(0 7.4468e-18 0 7.4468e-18 -1.56934e-18 0 0 0 0)
(0 6.66515e-18 0 6.66515e-18 -1.04878e-18 0 0 0 0)
(0 2.78487e-18 0 2.78487e-18 -1.74428e-18 0 0 0 0)
(0 5.70399e-18 0 5.70399e-18 -6.8201e-20 0 0 0 0)
(0 -3.62397e-18 0 -3.62397e-18 -2.52318e-18 0 0 0 0)
(0 -1.33058e-17 0 -1.33058e-17 5.95386e-19 0 0 0 0)
(0 -9.07009e-18 0 -9.07009e-18 -3.06958e-19 0 0 0 0)
(0 -1.31426e-18 0 -1.31426e-18 -4.22835e-18 0 0 0 0)
(0 1.1773e-18 0 1.1773e-18 4.82928e-19 0 0 0 0)
(0 2.15522e-19 0 2.15522e-19 -8.81896e-18 0 0 0 0)
(0 2.72819e-18 0 2.72819e-18 3.16423e-17 0 0 0 0)
(0 6.34358e-18 0 6.34358e-18 -3.9506e-17 0 0 0 0)
(0 6.61768e-18 0 6.61768e-18 5.51381e-17 0 0 0 0)
(0 1.99134e-18 0 1.99134e-18 6.53573e-16 0 0 0 0)
)
;

boundaryField
{
    inlet
    {
        type            cyclic;
    }
    outlet
    {
        type            cyclic;
    }
    top
    {
        type            symmetryPlane;
    }
    bottom
    {
        type            zeroGradient;
    }
    frontAndBackPlanes
    {
        type            empty;
    }
}


// ************************************************************************* //
