/*--------------------------------*- C++ -*----------------------------------*\
| =========                 |                                                 |
| \\      /  F ield         | OpenFOAM: The Open Source CFD Toolbox           |
|  \\    /   O peration     | Version:  2.4.0                                 |
|   \\  /    A nd           | Web:      www.OpenFOAM.org                      |
|    \\/     M anipulation  |                                                 |
\*---------------------------------------------------------------------------*/
FoamFile
{
    version     2.0;
    format      ascii;
    class       volTensorField;
    location    "250";
    object      Taus;
}
// * * * * * * * * * * * * * * * * * * * * * * * * * * * * * * * * * * * * * //

dimensions      [0 2 -2 0 0 0 0];

internalField   nonuniform List<tensor> 
438
(
(0 0.0288728 0 0.0288728 -0.212942 0 0 0 0)
(0 0.028505 0 0.028505 -0.212398 0 0 0 0)
(-2.80115e-20 0.028142 0 0.028142 -0.211403 0 0 0 0)
(0 0.0277793 0 0.0277793 -0.210358 0 0 0 0)
(-5.60277e-20 0.0274225 0 0.0274225 -0.209422 0 0 0 0)
(-5.603e-20 0.0270661 0 0.0270661 -0.208585 0 0 0 0)
(0 0.0267155 0 0.0267155 -0.20776 0 0 0 0)
(0 0.0263653 0 0.0263653 -0.206863 0 0 0 0)
(0 0.0260209 0 0.0260209 -0.205894 0 0 0 0)
(0 0.0256769 0 0.0256769 -0.204935 0 0 0 0)
(-1.12084e-19 0.0253387 0 0.0253387 -0.204078 0 0 0 0)
(0 0.0250008 0 0.0250008 -0.203143 0 0 0 0)
(-1.12094e-19 0.0246688 0 0.0246688 -0.202128 0 0 0 0)
(0 0.0243371 0 0.0243371 -0.201215 0 0 0 0)
(1.12104e-19 0.0240112 0 0.0240112 -0.200224 0 0 0 0)
(0 0.0236856 0 0.0236856 -0.199152 0 0 0 0)
(0 0.0233659 0 0.0233659 -0.198174 0 0 0 0)
(-2.24238e-19 0.0230464 0 0.0230464 -0.197196 0 0 0 0)
(0 0.0227327 0 0.0227327 -0.19614 0 0 0 0)
(-2.24259e-19 0.0224193 0 0.0224193 -0.195083 0 0 0 0)
(0 0.0221118 0 0.0221118 -0.194106 0 0 0 0)
(-2.2428e-19 0.0218044 0 0.0218044 -0.193125 0 0 0 0)
(0 0.0215029 0 0.0215029 -0.192068 0 0 0 0)
(-2.24301e-19 0.0212015 0 0.0212015 -0.190934 0 0 0 0)
(2.24312e-19 0.0209061 0 0.0209061 -0.189796 0 0 0 0)
(-2.24323e-19 0.0206107 0 0.0206107 -0.188729 0 0 0 0)
(0 0.0203212 0 0.0203212 -0.187651 0 0 0 0)
(0 0.0200317 0 0.0200317 -0.186562 0 0 0 0)
(-2.24357e-19 0.0197483 0 0.0197483 -0.185472 0 0 0 0)
(0 0.0194646 0 0.0194646 -0.184295 0 0 0 0)
(2.24379e-19 0.0191871 0 0.0191871 -0.183109 0 0 0 0)
(-2.2439e-19 0.0189093 0 0.0189093 -0.181983 0 0 0 0)
(0 0.0186376 0 0.0186376 -0.180845 0 0 0 0)
(0 0.0183656 0 0.0183656 -0.179615 0 0 0 0)
(0 0.0180997 0 0.0180997 -0.178441 0 0 0 0)
(4.48875e-19 0.0178336 0 0.0178336 -0.177321 0 0 0 0)
(0 0.0175734 0 0.0175734 -0.176109 0 0 0 0)
(-2.24461e-19 0.0173129 0 0.0173129 -0.174877 0 0 0 0)
(-2.24474e-19 0.0170585 0 0.0170585 -0.17369 0 0 0 0)
(0 0.0168037 0 0.0168037 -0.172542 0 0 0 0)
(0 0.016555 0 0.016555 -0.171373 0 0 0 0)
(-2.24511e-19 0.0163057 0 0.0163057 -0.170112 0 0 0 0)
(4.49047e-19 0.0160626 0 0.0160626 -0.168828 0 0 0 0)
(0 0.0158189 0 0.0158189 -0.167581 0 0 0 0)
(0 0.0155814 0 0.0155814 -0.166313 0 0 0 0)
(0 0.0153431 0 0.0153431 -0.164899 0 0 0 0)
(-4.4915e-19 0.015111 0 0.015111 -0.163343 0 0 0 0)
(-4.49175e-19 0.0148781 0 0.0148781 -0.161765 0 0 0 0)
(0 0.0146515 0 0.0146515 -0.160215 0 0 0 0)
(-4.49228e-19 0.014424 0 0.014424 -0.158738 0 0 0 0)
(8.9851e-19 0.0142028 0 0.0142028 -0.157439 0 0 0 0)
(0 0.0139806 0 0.0139806 -0.156413 0 0 0 0)
(-4.49314e-19 0.0137648 0 0.0137648 -0.155703 0 0 0 0)
(-4.49345e-19 0.0135478 0 0.0135478 -0.155302 0 0 0 0)
(-4.49379e-19 0.0133374 0 0.0133374 -0.155004 0 0 0 0)
(-4.4941e-19 0.0131255 0 0.0131255 -0.154398 0 0 0 0)
(-4.4944e-19 0.0129201 0 0.0129201 -0.153058 0 0 0 0)
(-4.49466e-19 0.0127131 0 0.0127131 -0.150603 0 0 0 0)
(0 0.0125126 0 0.0125126 -0.146982 0 0 0 0)
(0 0.0123104 0 0.0123104 -0.142314 0 0 0 0)
(0 0.0121146 0 0.0121146 -0.136908 0 0 0 0)
(0 0.0119172 0 0.0119172 -0.131166 0 0 0 0)
(-4.49545e-19 0.0117264 0 0.0117264 -0.125275 0 0 0 0)
(0 0.0115339 0 0.0115339 -0.119321 0 0 0 0)
(-4.4957e-19 0.011348 0 0.011348 -0.113356 0 0 0 0)
(-4.49583e-19 0.0111602 0 0.0111602 -0.107373 0 0 0 0)
(-4.49595e-19 0.0109791 0 0.0109791 -0.101372 0 0 0 0)
(0 0.010796 0 0.010796 -0.0954003 0 0 0 0)
(0 0.0106196 0 0.0106196 -0.0894657 0 0 0 0)
(-4.49634e-19 0.0104412 0 0.0104412 -0.0834609 0 0 0 0)
(0 0.0102694 0 0.0102694 -0.0773946 0 0 0 0)
(0 0.0100955 0 0.0100955 -0.0713103 0 0 0 0)
(0 0.0099283 0 0.0099283 -0.0652586 0 0 0 0)
(0 0.00975881 0 0.00975881 -0.059239 0 0 0 0)
(0 0.0095961 0 0.0095961 -0.0531522 0 0 0 0)
(-4.49712e-19 0.00943095 0 0.00943095 -0.0470467 0 0 0 0)
(0 0.00927264 0 0.00927264 -0.0409802 0 0 0 0)
(0 0.00911175 0 0.00911175 -0.0348463 0 0 0 0)
(0 0.00895771 0 0.00895771 -0.0286502 0 0 0 0)
(0 0.008801 0 0.008801 -0.0224847 0 0 0 0)
(0 0.00865117 0 0.00865117 -0.0163543 0 0 0 0)
(0 0.00849854 0 0.00849854 -0.0101547 0 0 0 0)
(-4.49802e-19 0.00835281 0 0.00835281 -0.0039418 0 0 0 0)
(0 0.00820418 0 0.00820418 0.00224106 0 0 0 0)
(0 0.00806245 0 0.00806245 0.00844081 0 0 0 0)
(4.49842e-19 0.00791772 0 0.00791772 0.0146551 0 0 0 0)
(-8.99709e-19 0.0077799 0 0.0077799 0.0209291 0 0 0 0)
(-4.49867e-19 0.00763896 0 0.00763896 0.0272208 0 0 0 0)
(0 0.00750496 0 0.00750496 0.0334786 0 0 0 0)
(-4.49894e-19 0.00736772 0 0.00736772 0.0397572 0 0 0 0)
(0 0.00723743 0 0.00723743 0.0460485 0 0 0 0)
(0 0.0071038 0 0.0071038 0.0523601 0 0 0 0)
(-4.49933e-19 0.00697712 0 0.00697712 0.0586396 0 0 0 0)
(0 0.00684701 0 0.00684701 0.0649361 0 0 0 0)
(-4.4996e-19 0.00672381 0 0.00672381 0.0712936 0 0 0 0)
(-4.49973e-19 0.00659713 0 0.00659713 0.0776207 0 0 0 0)
(0 0.00647733 0 0.00647733 0.0839632 0 0 0 0)
(-4.49999e-19 0.00635395 0 0.00635395 0.0903263 0 0 0 0)
(0 0.00623745 0 0.00623745 0.0966551 0 0 0 0)
(-4.50026e-19 0.00611728 0 0.00611728 0.10305 0 0 0 0)
(0 0.00600395 0 0.00600395 0.10942 0 0 0 0)
(0 0.00588691 0 0.00588691 0.115684 0 0 0 0)
(-4.50068e-19 0.00577667 0 0.00577667 0.121928 0 0 0 0)
(0 0.00566264 0 0.00566264 0.128192 0 0 0 0)
(0 0.00555535 0 0.00555535 0.134476 0 0 0 0)
(0 0.00544424 0 0.00544424 0.140704 0 0 0 0)
(0 0.00533981 0 0.00533981 0.146795 0 0 0 0)
(-4.50143e-19 0.00523152 0 0.00523152 0.152799 0 0 0 0)
(0 0.00512984 0 0.00512984 0.158718 0 0 0 0)
(0 0.00502427 0 0.00502427 0.164481 0 0 0 0)
(0 0.00492523 0 0.00492523 0.170014 0 0 0 0)
(0 0.0048223 0 0.0048223 0.175296 0 0 0 0)
(0 0.0047258 0 0.0047258 0.180262 0 0 0 0)
(-4.50261e-19 0.0046254 0 0.0046254 0.184778 0 0 0 0)
(0 0.00453134 0 0.00453134 0.188758 0 0 0 0)
(0 0.0044334 0 0.0044334 0.192089 0 0 0 0)
(0 0.0043417 0 0.0043417 0.194596 0 0 0 0)
(0 0.00424614 0 0.00424614 0.196024 0 0 0 0)
(-4.5045e-19 0.00415672 0 0.00415672 0.196065 0 0 0 0)
(0 0.00406351 0 0.00406351 0.194511 0 0 0 0)
(0 0.00397631 0 0.00397631 0.191033 0 0 0 0)
(-4.50678e-19 0.00388541 0 0.00388541 0.18517 0 0 0 0)
(0 0.00380042 0 0.00380042 0.176393 0 0 0 0)
(0 0.00371187 0 0.00371187 0.164104 0 0 0 0)
(0 0.00362916 0 0.00362916 0.147736 0 0 0 0)
(0 0.00354309 0 0.00354309 0.126787 0 0 0 0)
(-4.51649e-19 0.00346285 0 0.00346285 0.100986 0 0 0 0)
(0 0.00337954 0 0.00337954 0.0705602 0 0 0 0)
(-4.52538e-19 0.00330213 0 0.00330213 0.0362346 0 0 0 0)
(0 0.0032207 0 0.0032207 -0.00088073 0 0 0 0)
(-4.54068e-19 0.00314687 0 0.00314687 -0.0346579 0 0 0 0)
(-4.54755e-19 0.00306978 0 0.00306978 -0.0518443 0 0 0 0)
(0 0.00299148 0 0.00299148 -0.0483909 0 0 0 0)
(-4.54674e-19 0.0029088 0 0.0029088 -0.0378976 0 0 0 0)
(-4.54805e-19 0.00283216 0 0.00283216 -0.0326152 0 0 0 0)
(0 0.00275332 0 0.00275332 -0.0316654 0 0 0 0)
(0 0.00267828 0 0.00267828 -0.0301097 0 0 0 0)
(-4.55534e-19 0.00260008 0 0.00260008 -0.0272956 0 0 0 0)
(4.55778e-19 0.00252596 0 0.00252596 -0.0245756 0 0 0 0)
(0 0.00244916 0 0.00244916 -0.0221234 0 0 0 0)
(0 0.00237605 0 0.00237605 -0.0196199 0 0 0 0)
(0 0.00230037 0 0.00230037 -0.0169918 0 0 0 0)
(4.57043e-19 0.00222813 0 0.00222813 -0.0144268 0 0 0 0)
(-4.57483e-19 0.00215373 0 0.00215373 -0.0121908 0 0 0 0)
(0 0.00208268 0 0.00208268 -0.0101257 0 0 0 0)
(0 0.00200948 0 0.00200948 -0.00750895 0 0 0 0)
(0 0.00193903 0 0.00193903 -0.00466952 0 0 0 0)
(0 0.00197602 0 0.00197602 -0.00351977 0 0 0 0)
(-3.58104e-19 0.00243899 0 0.00243899 -0.00334973 0 0 0 0)
(0 0.00117259 0 0.00117259 4.34644e-06 0 0 0 0)
(0 8.15062e-05 0 8.15062e-05 -1.00595e-06 0 0 0 0)
(0 7.05785e-05 0 7.05785e-05 1.14612e-06 0 0 0 0)
(0 2.33846e-05 0 2.33846e-05 -7.40168e-06 0 0 0 0)
(-6.61331e-23 5.67579e-06 0 5.67579e-06 2.15608e-05 0 0 0 0)
(0 3.98849e-07 0 3.98849e-07 -9.26712e-06 0 0 0 0)
(0 -1.40786e-06 0 -1.40786e-06 2.87692e-05 0 0 0 0)
(0 -6.47625e-06 0 -6.47625e-06 -3.37174e-05 0 0 0 0)
(0 -1.58767e-06 0 -1.58767e-06 -4.39299e-05 0 0 0 0)
(0 -3.92068e-14 0 -3.92068e-14 -6.90274e-13 0 0 0 0)
(0 -1.65002e-30 0 -1.65002e-30 -1.3448e-30 0 0 0 0)
(5.10773e-59 -5.63863e-42 0 -5.63863e-42 9.04858e-43 0 0 0 0)
(-1.15261e-70 -1.29165e-53 0 -1.29165e-53 -1.17229e-54 0 0 0 0)
(0 -2.33041e-65 0 -2.33041e-65 4.93871e-67 0 0 0 0)
(-3.18576e-94 -3.73841e-77 0 -3.73841e-77 -1.08146e-78 0 0 0 0)
(0 -5.45252e-89 0 -5.45252e-89 -3.33656e-91 0 0 0 0)
(0 -6.20019e-101 0 -6.20019e-101 -1.01925e-102 0 0 0 0)
(0 -7.92526e-113 0 -7.92526e-113 -9.08244e-115 0 0 0 0)
(0 -1.05964e-116 0 -1.05964e-116 -1.42721e-118 0 0 0 0)
(0 -6.22207e-127 0 -6.22207e-127 -7.61544e-129 0 0 0 0)
(0 -4.75081e-131 0 -4.75081e-131 -5.8951e-133 0 0 0 0)
(0 -6.29498e-133 0 -6.29498e-133 -7.54247e-135 0 0 0 0)
(0 -7.5001e-135 0 -7.5001e-135 -8.80587e-137 0 0 0 0)
(3.7108e-154 -8.79245e-137 0 -8.79245e-137 -1.00687e-138 0 0 0 0)
(0 -7.70256e-139 0 -7.70256e-139 -8.57554e-141 0 0 0 0)
(0 -4.9806e-141 0 -4.9806e-141 -5.39656e-143 0 0 0 0)
(0 -2.86084e-151 0 -2.86084e-151 -3.00329e-153 0 0 0 0)
(0 -7.83369e-162 0 -7.83369e-162 -7.96273e-164 0 0 0 0)
(-7.07977e-190 -1.55499e-172 0 -1.55499e-172 -1.52401e-174 0 0 0 0)
(0 -2.34576e-183 0 -2.34576e-183 -2.2099e-185 0 0 0 0)
(0 -3.19414e-194 0 -3.19414e-194 -2.87712e-196 0 0 0 0)
(0 -5.45945e-197 0 -5.45945e-197 -4.67325e-199 0 0 0 0)
(0 -6.67374e-199 0 -6.67374e-199 -5.38273e-201 0 0 0 0)
(0 -7.77001e-201 0 -7.77001e-201 -5.8394e-203 0 0 0 0)
(-9.14215e-221 -6.77197e-203 0 -6.77197e-203 -4.66924e-205 0 0 0 0)
(0 -4.2962e-205 0 -4.2962e-205 -2.659e-207 0 0 0 0)
(0 -2.66339e-215 0 -2.66339e-215 -1.43263e-217 0 0 0 0)
(6.37805e-244 -8.25198e-226 0 -8.25198e-226 -3.66593e-228 0 0 0 0)
(0 -1.73654e-236 0 -1.73654e-236 -5.82531e-239 0 0 0 0)
(0 -2.77668e-247 0 -2.77668e-247 -5.79478e-250 0 0 0 0)
(0 -3.48558e-258 0 -3.48558e-258 -2.12249e-261 0 0 0 0)
(0 -3.92392e-269 0 -3.92392e-269 4.36285e-272 0 0 0 0)
(1.9045e-298 -3.45192e-280 0 -3.45192e-280 1.07294e-282 0 0 0 0)
(0 -2.80287e-291 0 -2.80287e-291 1.51693e-293 0 0 0 0)
(2.73762e-320 -2.00779e-302 0 -2.00779e-302 1.61703e-304 0 0 0 0)
(0 -1.17901e-313 0 -1.17901e-313 1.30441e-315 0 0 0 0)
(0 -0 0 -0 0 0 0 0 0)
(-0 -0 0 -0 0 0 0 0 0)
(0 -0 0 -0 0 0 0 0 0)
(0 -0 0 -0 0 0 0 0 0)
(0 -0 0 -0 0 0 0 0 0)
(0 -0 0 -0 0 0 0 0 0)
(0 -0 0 -0 0 0 0 0 0)
(0 -0 0 -0 0 0 0 0 0)
(0 -0 0 -0 0 0 0 0 0)
(0 -0 0 -0 0 0 0 0 0)
(0 0 0 0 0 0 0 0 0)
(0 0 0 0 0 0 0 0 0)
(0 0 0 0 0 0 0 0 0)
(0 0 0 0 0 0 0 0 0)
(0 0 0 0 0 0 0 0 0)
(0 0 0 0 0 0 0 0 0)
(0 0 0 0 0 0 0 0 0)
(0 0 0 0 0 0 0 0 0)
(0 0 0 0 0 0 0 0 0)
(0 0 0 0 0 0 0 0 0)
(0 0 0 0 0 0 0 0 0)
(0 0 0 0 0 0 0 0 0)
(0 0 0 0 0 0 0 0 0)
(0 0 0 0 0 0 0 0 0)
(0 0 0 0 0 0 0 0 0)
(0 0 0 0 0 0 0 0 0)
(0 0 0 0 0 0 0 0 0)
(0 0 0 0 0 0 0 0 0)
(0 0 0 0 0 0 0 0 0)
(0 0 0 0 0 0 0 0 0)
(0 0 0 0 0 0 0 0 0)
(0 0 0 0 0 0 0 0 0)
(0 0 0 0 0 0 0 0 0)
(0 0 0 0 0 0 0 0 0)
(0 0 0 0 0 0 0 0 0)
(0 0 0 0 0 0 0 0 0)
(-0 0 0 0 0 0 0 0 0)
(0 0 0 0 0 0 0 0 0)
(0 0 0 0 0 0 0 0 0)
(0 0 0 0 0 0 0 0 0)
(0 0 0 0 0 0 0 0 0)
(0 0 0 0 0 0 0 0 0)
(0 0 0 0 0 0 0 0 0)
(0 0 0 0 0 0 0 0 0)
(0 0 0 0 0 0 0 0 0)
(0 0 0 0 0 0 0 0 0)
(0 0 0 0 0 0 0 0 0)
(0 0 0 0 0 0 0 0 0)
(0 0 0 0 0 0 0 0 0)
(0 0 0 0 0 0 0 0 0)
(0 0 0 0 0 0 0 0 0)
(0 0 0 0 0 0 0 0 0)
(0 0 0 0 0 0 0 0 0)
(0 0 0 0 0 0 0 0 0)
(0 0 0 0 0 0 0 0 0)
(0 0 0 0 0 0 0 0 0)
(0 0 0 0 0 0 0 0 0)
(0 -0 0 -0 0 0 0 0 0)
(0 -0 0 -0 0 0 0 0 0)
(0 -0 0 -0 0 0 0 0 0)
(0 -0 0 -0 0 0 0 0 0)
(0 -0 0 -0 0 0 0 0 0)
(0 -0 0 -0 0 0 0 0 0)
(0 -0 0 -0 0 0 0 0 0)
(0 -0 0 -0 0 0 0 0 0)
(0 -0 0 -0 0 0 0 0 0)
(0 -0 0 -0 0 0 0 0 0)
(0 -0 0 -0 0 0 0 0 0)
(0 -0 0 -0 0 0 0 0 0)
(0 -0 0 -0 0 0 0 0 0)
(0 -0 0 -0 0 0 0 0 0)
(0 -0 0 -0 0 0 0 0 0)
(0 -0 0 -0 0 0 0 0 0)
(0 -0 0 -0 0 0 0 0 0)
(0 -0 0 -0 0 0 0 0 0)
(0 -0 0 -0 0 0 0 0 0)
(0 -0 0 -0 0 0 0 0 0)
(0 -0 0 -0 0 0 0 0 0)
(0 -0 0 -0 0 0 0 0 0)
(0 -0 0 -0 0 0 0 0 0)
(0 -0 0 -0 0 0 0 0 0)
(0 -0 0 -0 0 0 0 0 0)
(0 -0 0 -0 0 0 0 0 0)
(0 -0 0 -0 0 0 0 0 0)
(-0 -0 0 -0 0 0 0 0 0)
(0 -0 0 -0 0 0 0 0 0)
(0 -0 0 -0 0 0 0 0 0)
(-0 -0 0 -0 0 0 0 0 0)
(0 -0 0 -0 0 0 0 0 0)
(0 -0 0 -0 0 0 0 0 0)
(0 -0 0 -0 0 0 0 0 0)
(0 -0 0 -0 0 0 0 0 0)
(0 -0 0 -0 0 0 0 0 0)
(0 -0 0 -0 0 0 0 0 0)
(-0 -0 0 -0 0 0 0 0 0)
(0 -0 0 -0 0 0 0 0 0)
(0 0 0 0 0 0 0 0 0)
(0 0 0 0 0 0 0 0 0)
(0 0 0 0 0 0 0 0 0)
(0 0 0 0 0 0 0 0 0)
(0 0 0 0 0 0 0 0 0)
(0 0 0 0 0 0 0 0 0)
(0 0 0 0 0 0 0 0 0)
(0 0 0 0 0 0 0 0 0)
(0 0 0 0 0 0 0 0 0)
(0 0 0 0 0 0 0 0 0)
(0 0 0 0 0 0 0 0 0)
(0 0 0 0 0 0 0 0 0)
(0 0 0 0 0 0 0 0 0)
(0 0 0 0 0 0 0 0 0)
(0 0 0 0 0 0 0 0 0)
(-0 0 0 0 0 0 0 0 0)
(0 0 0 0 0 0 0 0 0)
(0 0 0 0 0 0 0 0 0)
(0 0 0 0 0 0 0 0 0)
(0 0 0 0 0 0 0 0 0)
(0 -0 0 -0 0 0 0 0 0)
(0 -0 0 -0 0 0 0 0 0)
(0 -0 0 -0 0 0 0 0 0)
(-0 -0 0 -0 0 0 0 0 0)
(0 -0 0 -0 0 0 0 0 0)
(-0 -0 0 -0 0 0 0 0 0)
(0 -0 0 -0 0 0 0 0 0)
(-0 -0 0 -0 0 0 0 0 0)
(0 -0 0 -0 0 0 0 0 0)
(0 -0 0 -0 0 0 0 0 0)
(-0 -0 0 -0 0 0 0 0 0)
(0 -0 0 -0 0 0 0 0 0)
(0 -0 0 -0 0 0 0 0 0)
(0 -0 0 -0 0 0 0 0 0)
(0 -0 0 -0 0 0 0 0 0)
(0 -0 0 -0 0 0 0 0 0)
(0 -0 0 -0 0 0 0 0 0)
(0 -0 0 -0 0 0 0 0 0)
(0 -0 0 -0 0 0 0 0 0)
(0 -0 0 -0 0 0 0 0 0)
(0 -0 0 -0 0 0 0 0 0)
(0 -0 0 -0 0 0 0 0 0)
(0 -0 0 -0 0 0 0 0 0)
(0 -0 0 -0 0 0 0 0 0)
(0 -0 0 -0 0 0 0 0 0)
(-0 -0 0 -0 0 0 0 0 0)
(-0 -0 0 -0 0 0 0 0 0)
(0 -0 0 -0 0 0 0 0 0)
(0 -0 0 -0 0 0 0 0 0)
(-0 -0 0 -0 0 0 0 0 0)
(0 -0 0 -0 0 0 0 0 0)
(0 -0 0 -0 0 0 0 0 0)
(0 -0 0 -0 0 0 0 0 0)
(0 -0 0 -0 0 0 0 0 0)
(0 0 0 0 0 0 0 0 0)
(-0 0 0 0 0 0 0 0 0)
(-0 0 0 0 0 0 0 0 0)
(0 0 0 0 0 0 0 0 0)
(0 0 0 0 0 0 0 0 0)
(0 0 0 0 0 0 0 0 0)
(0 0 0 0 0 0 0 0 0)
(-0 0 0 0 0 0 0 0 0)
(0 0 0 0 0 0 0 0 0)
(0 0 0 0 0 0 0 0 0)
(0 0 0 0 0 0 0 0 0)
(0 0 0 0 0 0 0 0 0)
(0 0 0 0 0 0 0 0 0)
(0 0 0 0 0 0 0 0 0)
(0 0 0 0 0 0 0 0 0)
(0 0 0 0 0 0 0 0 0)
(0 0 0 0 0 0 0 0 0)
(0 0 0 0 0 0 0 0 0)
(0 0 0 0 0 0 0 0 0)
(0 0 0 0 0 0 0 0 0)
(0 0 0 0 0 0 0 0 0)
(0 0 0 0 0 0 0 0 0)
(0 0 0 0 0 0 0 0 0)
(0 0 0 0 0 0 0 0 0)
(0 0 0 0 0 0 0 0 0)
(0 0 0 0 0 0 0 0 0)
(0 0 0 0 0 0 0 0 0)
(0 0 0 0 0 0 0 0 0)
(0 0 0 0 0 0 0 0 0)
(0 0 0 0 0 0 0 0 0)
(0 0 0 0 0 0 0 0 0)
(0 0 0 0 0 0 0 0 0)
(0 0 0 0 0 0 0 0 0)
(0 0 0 0 0 0 0 0 0)
(-0 0 0 0 0 0 0 0 0)
(0 0 0 0 0 0 0 0 0)
(0 0 0 0 0 0 0 0 0)
(0 0 0 0 0 0 0 0 0)
(0 0 0 0 0 0 0 0 0)
(0 0 0 0 0 0 0 0 0)
(0 0 0 0 0 0 0 0 0)
(0 0 0 0 0 0 0 0 0)
(0 0 0 0 0 0 0 0 0)
(0 0 0 0 0 0 0 0 0)
(0 0 0 0 0 0 0 0 0)
(0 0 0 0 0 0 0 0 0)
(0 0 0 0 -0 0 0 0 0)
(0 0 0 0 -0 0 0 0 0)
(0 -0 0 -0 0 0 0 0 0)
(0 -0 0 -0 0 0 0 0 0)
(0 0 0 0 -0 0 0 0 0)
(0 -0 0 -0 -0 0 0 0 0)
(0 -0 0 -0 0 0 0 0 0)
(0 -0 0 -0 -0 0 0 0 0)
(0 0 0 0 -0 0 0 0 0)
(0 0 0 0 -0 0 0 0 0)
(0 -0 0 -0 -0 0 0 0 0)
(0 -0 0 -0 0 0 0 0 0)
(0 0 0 0 -0 0 0 0 0)
(0 -0 0 -0 -0 0 0 0 0)
(0 -0 0 -0 0 0 0 0 0)
(0 -0 0 -0 -0 0 0 0 0)
(0 0 0 0 -0 0 0 0 0)
(0 0 0 0 -0 0 0 0 0)
(0 -0 0 -0 -0 0 0 0 0)
(0 -0 0 -0 0 0 0 0 0)
(0 -0 0 -0 -0 0 0 0 0)
(0 0 0 0 -0 0 0 0 0)
(0 0 0 0 -0 0 0 0 0)
(0 -0 0 -0 0 0 0 0 0)
(0 -0 0 -0 0 0 0 0 0)
(0 -0 0 -0 -0 0 0 0 0)
(0 0 0 0 -0 0 0 0 0)
(0 0 0 0 -0 0 0 0 0)
(0 -0 0 -0 -0 0 0 0 0)
(0 -0 0 -0 0 0 0 0 0)
(0 0 0 0 -0 0 0 0 0)
(0 -0 0 -0 0 0 0 0 0)
(0 -0 0 -0 0 0 0 0 0)
(0 -0 0 -0 0 0 0 0 0)
(0 -0 0 -0 0 0 0 0 0)
(0 -0 0 -0 0 0 0 0 0)
(0 -0 0 -0 0 0 0 0 0)
(0 -0 0 -0 0 0 0 0 0)
(0 -0 0 -0 0 0 0 0 0)
(-0 -0 0 -0 0 0 0 0 0)
(0 -0 0 -0 0 0 0 0 0)
(0 -0 0 -0 0 0 0 0 0)
(0 -0 0 -0 0 0 0 0 0)
(0 -0 0 -0 0 0 0 0 0)
(0 -0 0 -0 0 0 0 0 0)
(0 -0 0 -0 0 0 0 0 0)
(0 -0 0 -0 0 0 0 0 0)
)
;

boundaryField
{
    inlet
    {
        type            cyclic;
    }
    outlet
    {
        type            cyclic;
    }
    top
    {
        type            symmetryPlane;
    }
    bottom
    {
        type            zeroGradient;
    }
    frontAndBackPlanes
    {
        type            empty;
    }
}


// ************************************************************************* //
