/*--------------------------------*- C++ -*----------------------------------*\
| =========                 |                                                 |
| \\      /  F ield         | OpenFOAM: The Open Source CFD Toolbox           |
|  \\    /   O peration     | Version:  2.4.0                                 |
|   \\  /    A nd           | Web:      www.OpenFOAM.org                      |
|    \\/     M anipulation  |                                                 |
\*---------------------------------------------------------------------------*/
FoamFile
{
    version     2.0;
    format      ascii;
    class       volVectorField;
    location    "250";
    object      U;
}
// * * * * * * * * * * * * * * * * * * * * * * * * * * * * * * * * * * * * * //

dimensions      [0 1 -1 0 0 0 0];

internalField   nonuniform List<vector> 
438
(
(0.000120442 -4.19309e-13 0)
(0.000120973 -8.48578e-13 0)
(0.000121006 -1.16366e-12 0)
(0.00012104 -1.28039e-12 0)
(0.000121074 -1.18012e-12 0)
(0.000121109 -1.17946e-12 0)
(0.000121144 -1.13632e-12 0)
(0.000121179 -1.22679e-12 0)
(0.000121214 -1.18353e-12 0)
(0.000121249 -1.24283e-12 0)
(0.000121286 -1.3006e-12 0)
(0.000121322 -1.13276e-12 0)
(0.000121357 -1.32745e-12 0)
(0.000121395 -1.35448e-12 0)
(0.000121431 -1.2096e-12 0)
(0.000121468 -1.40191e-12 0)
(0.000121506 -1.33699e-12 0)
(0.000121543 -1.35523e-12 0)
(0.000121581 -1.30038e-12 0)
(0.000121619 -1.41962e-12 0)
(0.000121658 -1.33632e-12 0)
(0.000121697 -1.37228e-12 0)
(0.000121736 -1.40325e-12 0)
(0.000121776 -1.44976e-12 0)
(0.000121815 -1.48845e-12 0)
(0.000121855 -1.4979e-12 0)
(0.000121896 -1.34376e-12 0)
(0.000121936 -1.59921e-12 0)
(0.000121978 -1.37141e-12 0)
(0.000122019 -1.60365e-12 0)
(0.000122061 -1.48026e-12 0)
(0.000122103 -1.67222e-12 0)
(0.000122146 -1.4138e-12 0)
(0.000122188 -1.60548e-12 0)
(0.000122231 -1.66719e-12 0)
(0.000122276 -1.48267e-12 0)
(0.000122319 -1.60035e-12 0)
(0.000122364 -1.63267e-12 0)
(0.000122408 -1.60121e-12 0)
(0.000122454 -1.634e-12 0)
(0.0001225 -1.54245e-12 0)
(0.000122546 -1.66791e-12 0)
(0.000122593 -1.71826e-12 0)
(0.00012264 -1.76083e-12 0)
(0.000122687 -1.73227e-12 0)
(0.000122735 -1.79966e-12 0)
(0.000122781 -2.01869e-12 0)
(0.000122828 -2.06715e-12 0)
(0.000122876 -1.96478e-12 0)
(0.000122925 -1.96337e-12 0)
(0.000122975 -1.70913e-12 0)
(0.000123028 -1.57003e-12 0)
(0.000123083 -1.08397e-12 0)
(0.000123142 -1.17687e-12 0)
(0.000123203 -5.6637e-13 0)
(0.000123261 -1.34063e-12 0)
(0.000123317 -1.37983e-12 0)
(0.000123363 -2.96373e-12 0)
(0.000123403 -3.87483e-12 0)
(0.000123434 -5.21865e-12 0)
(0.000123461 -6.19838e-12 0)
(0.000123485 -6.75237e-12 0)
(0.000123509 -6.84608e-12 0)
(0.000123533 -7.12542e-12 0)
(0.000123556 -6.94087e-12 0)
(0.00012358 -7.16395e-12 0)
(0.000123603 -6.91022e-12 0)
(0.000123627 -7.33344e-12 0)
(0.000123652 -6.78739e-12 0)
(0.000123675 -7.182e-12 0)
(0.000123699 -7.02756e-12 0)
(0.000123723 -7.22413e-12 0)
(0.000123746 -7.19281e-12 0)
(0.000123771 -7.10229e-12 0)
(0.000123795 -6.96741e-12 0)
(0.000123818 -7.49679e-12 0)
(0.000123843 -6.89416e-12 0)
(0.000123867 -7.33625e-12 0)
(0.00012389 -7.08347e-12 0)
(0.000123914 -7.57534e-12 0)
(0.000123939 -6.94565e-12 0)
(0.000123963 -7.35762e-12 0)
(0.000123986 -7.33377e-12 0)
(0.000124011 -7.23314e-12 0)
(0.000124035 -7.30439e-12 0)
(0.00012406 -7.32366e-12 0)
(0.000124083 -7.13461e-12 0)
(0.000124107 -7.72105e-12 0)
(0.000124132 -6.99889e-12 0)
(0.000124156 -7.70063e-12 0)
(0.000124181 -7.02426e-12 0)
(0.000124204 -7.6839e-12 0)
(0.000124229 -7.24328e-12 0)
(0.000124254 -7.36528e-12 0)
(0.000124278 -7.3763e-12 0)
(0.000124303 -7.6446e-12 0)
(0.000124328 -7.00231e-12 0)
(0.000124352 -7.97071e-12 0)
(0.000124378 -6.92557e-12 0)
(0.000124402 -7.714e-12 0)
(0.000124427 -7.37194e-12 0)
(0.000124453 -7.52414e-12 0)
(0.000124479 -7.09113e-12 0)
(0.000124506 -7.5078e-12 0)
(0.000124532 -7.02024e-12 0)
(0.000124559 -7.69346e-12 0)
(0.000124588 -6.85785e-12 0)
(0.000124617 -7.26602e-12 0)
(0.000124647 -6.69196e-12 0)
(0.000124679 -7.04058e-12 0)
(0.000124714 -6.34194e-12 0)
(0.000124751 -6.37818e-12 0)
(0.000124791 -5.75972e-12 0)
(0.000124836 -5.63584e-12 0)
(0.000124887 -4.55169e-12 0)
(0.000124945 -4.37794e-12 0)
(0.000125012 -2.82641e-12 0)
(0.000125091 -2.47422e-12 0)
(0.000125186 -2.11631e-13 0)
(0.0001253 9.49481e-13 0)
(0.000125439 3.44934e-12 0)
(0.000125609 5.41959e-12 0)
(0.00012582 8.64683e-12 0)
(0.000126086 1.13728e-11 0)
(0.000126425 1.52749e-11 0)
(0.000126858 1.77614e-11 0)
(0.000127419 2.0976e-11 0)
(0.000128144 2.12617e-11 0)
(0.000129089 1.92701e-11 0)
(0.000130336 6.69545e-12 0)
(0.000131992 4.90449e-11 0)
(0.000133308 1.01867e-10 0)
(0.000133366 1.9821e-11 0)
(0.000133156 -4.08614e-11 0)
(0.000133406 -2.84008e-11 0)
(0.000133962 4.65682e-12 0)
(0.000134411 1.71269e-12 0)
(0.000134813 -8.3206e-12 0)
(0.000135285 -7.76528e-12 0)
(0.000135823 -6.46423e-12 0)
(0.000136405 -6.10593e-12 0)
(0.000137037 -8.9108e-12 0)
(0.000137749 -1.27613e-11 0)
(0.000138611 -1.70024e-11 0)
(0.000139688 5.37706e-10 0)
(0.000140865 -9.28622e-09 0)
(0.000142085 4.30059e-08 0)
(0.000144317 -1.24762e-07 0)
(0.000149323 3.95941e-07 0)
(0.000224906 -1.25623e-06 0)
(0.0379918 6.1628e-06 0)
(0.0930993 7.11272e-06 0)
(0.104721 -5.35197e-06 0)
(0.108094 3.1447e-06 0)
(0.108818 -1.64396e-06 0)
(0.108288 8.0575e-07 0)
(0.107 -2.97191e-07 0)
(0.105186 1.6551e-07 0)
(0.102982 -5.99797e-08 0)
(0.100477 2.28327e-08 0)
(0.0977384 -8.52849e-09 0)
(0.0948151 3.08613e-09 0)
(0.0917466 -1.08632e-09 0)
(0.0885644 3.7224e-10 0)
(0.0852941 -1.2483e-10 0)
(0.0819568 4.05874e-11 0)
(0.0785703 -1.33258e-11 0)
(0.0751493 4.0123e-12 0)
(0.0717067 -1.70572e-12 0)
(0.0682536 9.18447e-15 0)
(0.0647995 -1.54263e-13 0)
(0.0613531 -2.12434e-13 0)
(0.0579222 -2.23453e-13 0)
(0.0545138 -2.24393e-13 0)
(0.0511347 -2.25892e-13 0)
(0.0477909 -2.28273e-13 0)
(0.0444885 -2.30653e-13 0)
(0.0412333 -2.33373e-13 0)
(0.0380309 -2.35958e-13 0)
(0.034887 -2.38361e-13 0)
(0.0318073 -2.41051e-13 0)
(0.0287975 -2.43534e-13 0)
(0.0258638 -2.46079e-13 0)
(0.0230121 -2.49186e-13 0)
(0.0202489 -2.51958e-13 0)
(0.0175807 -2.54513e-13 0)
(0.0150144 -2.57167e-13 0)
(0.012557 -2.59554e-13 0)
(0.0102159 -2.61629e-13 0)
(0.00799831 -2.62737e-13 0)
(0.00591152 -2.63983e-13 0)
(0.00396258 -2.66091e-13 0)
(0.002158 -2.68463e-13 0)
(0.000503478 -2.7109e-13 0)
(-0.000996521 -2.74178e-13 0)
(-0.00233917 -2.77846e-13 0)
(-0.00352367 -2.81155e-13 0)
(-0.00455159 -2.83014e-13 0)
(-0.00542702 -2.83674e-13 0)
(-0.00615653 -2.85084e-13 0)
(-0.0067489 -2.87441e-13 0)
(-0.00721466 -2.90079e-13 0)
(-0.00756547 -2.92194e-13 0)
(-0.00781349 -2.94264e-13 0)
(-0.00797079 -2.9931e-13 0)
(-0.00804888 -3.05472e-13 0)
(-0.00805842 -3.08932e-13 0)
(-0.00800903 -3.11223e-13 0)
(-0.00790928 -3.13861e-13 0)
(-0.00776671 -3.16552e-13 0)
(-0.0075879 -3.1931e-13 0)
(-0.00737863 -3.21987e-13 0)
(-0.00714393 -3.24452e-13 0)
(-0.00688823 -3.26724e-13 0)
(-0.00661546 -3.29176e-13 0)
(-0.00632908 -3.31903e-13 0)
(-0.00603221 -3.34705e-13 0)
(-0.00572764 -3.37362e-13 0)
(-0.0054179 -3.3977e-13 0)
(-0.00510527 -3.42052e-13 0)
(-0.00479183 -3.44508e-13 0)
(-0.00447946 -3.46992e-13 0)
(-0.00416988 -3.49468e-13 0)
(-0.00386465 -3.52291e-13 0)
(-0.00356519 -3.55281e-13 0)
(-0.00327276 -3.57714e-13 0)
(-0.00298853 -3.59796e-13 0)
(-0.00271351 -3.62227e-13 0)
(-0.0024486 -3.64886e-13 0)
(-0.00219459 -3.67404e-13 0)
(-0.00195214 -3.6952e-13 0)
(-0.00172181 -3.71633e-13 0)
(-0.00150404 -3.73347e-13 0)
(-0.00129918 -3.73931e-13 0)
(-0.00110745 -3.74581e-13 0)
(-0.000928976 -3.7648e-13 0)
(-0.000763792 -3.78908e-13 0)
(-0.000611827 -3.80939e-13 0)
(-0.000472922 -3.82951e-13 0)
(-0.000346835 -3.85163e-13 0)
(-0.000233242 -3.87646e-13 0)
(-0.000131751 -3.90556e-13 0)
(-4.19035e-05 -3.93388e-13 0)
(3.6811e-05 -3.95826e-13 0)
(0.000104951 -3.98292e-13 0)
(0.000163112 -4.00917e-13 0)
(0.000211918 -4.03579e-13 0)
(0.000252014 -4.06042e-13 0)
(0.000284055 -4.08467e-13 0)
(0.000308702 -4.11187e-13 0)
(0.000326611 -4.142e-13 0)
(0.000338432 -4.17091e-13 0)
(0.000344796 -4.19737e-13 0)
(0.000346318 -4.22109e-13 0)
(0.000343587 -4.24521e-13 0)
(0.000337165 -4.27044e-13 0)
(0.000327587 -4.29762e-13 0)
(0.000315352 -4.32663e-13 0)
(0.000300929 -4.35459e-13 0)
(0.000284751 -4.38432e-13 0)
(0.000267219 -4.41108e-13 0)
(0.000248696 -4.43606e-13 0)
(0.000229513 -4.46062e-13 0)
(0.000209966 -4.48175e-13 0)
(0.000190319 -4.50415e-13 0)
(0.000170805 -4.53165e-13 0)
(0.000151624 -4.55709e-13 0)
(0.000132949 -4.58011e-13 0)
(0.000114925 -4.60886e-13 0)
(9.76715e-05 -4.63535e-13 0)
(8.12832e-05 -4.65969e-13 0)
(6.58332e-05 -4.68454e-13 0)
(5.13742e-05 -4.70831e-13 0)
(3.79402e-05 -4.73536e-13 0)
(2.55488e-05 -4.76162e-13 0)
(1.42028e-05 -4.78794e-13 0)
(3.89189e-06 -4.81238e-13 0)
(-5.40528e-06 -4.83535e-13 0)
(-1.37198e-05 -4.85684e-13 0)
(-2.10906e-05 -4.87525e-13 0)
(-2.75632e-05 -4.90193e-13 0)
(-3.31881e-05 -4.92778e-13 0)
(-3.80197e-05 -4.94816e-13 0)
(-4.21151e-05 -4.97034e-13 0)
(-4.55327e-05 -4.99563e-13 0)
(-4.83317e-05 -5.02215e-13 0)
(-5.05711e-05 -5.04195e-13 0)
(-5.23087e-05 -5.06068e-13 0)
(-5.36011e-05 -5.08246e-13 0)
(-5.45024e-05 -5.10482e-13 0)
(-5.50644e-05 -5.13075e-13 0)
(-5.53358e-05 -5.15483e-13 0)
(-5.53625e-05 -5.17589e-13 0)
(-5.51867e-05 -5.19867e-13 0)
(-5.48473e-05 -5.2229e-13 0)
(-5.43799e-05 -5.24866e-13 0)
(-5.38163e-05 -5.27211e-13 0)
(-5.31851e-05 -5.2963e-13 0)
(-5.25113e-05 -5.33826e-13 0)
(-5.18169e-05 -5.42221e-13 0)
(-5.11177e-05 -5.4661e-13 0)
(-5.04222e-05 -5.39862e-13 0)
(-4.97406e-05 -5.39507e-13 0)
(-4.9088e-05 -5.42147e-13 0)
(-4.84782e-05 -5.44715e-13 0)
(-4.79235e-05 -5.47474e-13 0)
(-4.74347e-05 -5.49939e-13 0)
(-4.7021e-05 -5.52272e-13 0)
(-4.66893e-05 -5.54525e-13 0)
(-4.64447e-05 -5.56946e-13 0)
(-4.62903e-05 -5.59894e-13 0)
(-4.62271e-05 -5.6295e-13 0)
(-4.6254e-05 -5.66092e-13 0)
(-4.63682e-05 -5.6918e-13 0)
(-4.65648e-05 -5.72424e-13 0)
(-4.68379e-05 -5.75719e-13 0)
(-4.71798e-05 -5.78868e-13 0)
(-4.75823e-05 -5.81926e-13 0)
(-4.80361e-05 -5.85161e-13 0)
(-4.85318e-05 -5.88643e-13 0)
(-4.90599e-05 -5.92282e-13 0)
(-4.96113e-05 -5.96093e-13 0)
(-5.01772e-05 -5.99863e-13 0)
(-5.07497e-05 -6.03665e-13 0)
(-5.1322e-05 -6.07778e-13 0)
(-5.1888e-05 -6.11864e-13 0)
(-5.24431e-05 -6.15802e-13 0)
(-5.29837e-05 -6.19858e-13 0)
(-5.3507e-05 -6.24032e-13 0)
(-5.40113e-05 -6.28511e-13 0)
(-5.44957e-05 -6.33027e-13 0)
(-5.49595e-05 -6.37656e-13 0)
(-5.54026e-05 -6.42461e-13 0)
(-5.58247e-05 -6.47013e-13 0)
(-5.62255e-05 -6.51712e-13 0)
(-5.66044e-05 -6.5673e-13 0)
(-5.69605e-05 -6.61818e-13 0)
(-5.7292e-05 -6.66774e-13 0)
(-5.75969e-05 -6.71774e-13 0)
(-5.78725e-05 -6.7707e-13 0)
(-5.81156e-05 -6.8234e-13 0)
(-5.83226e-05 -6.87519e-13 0)
(-5.84893e-05 -6.92988e-13 0)
(-5.86114e-05 -6.98636e-13 0)
(-5.86842e-05 -7.04329e-13 0)
(-5.87029e-05 -7.10094e-13 0)
(-5.86622e-05 -7.15958e-13 0)
(-5.85571e-05 -7.22032e-13 0)
(-5.8382e-05 -7.28232e-13 0)
(-5.81315e-05 -7.34492e-13 0)
(-5.77997e-05 -7.40954e-13 0)
(-5.73807e-05 -7.47529e-13 0)
(-5.68686e-05 -7.54245e-13 0)
(-5.62572e-05 -7.61112e-13 0)
(-5.55402e-05 -7.67981e-13 0)
(-5.47114e-05 -7.74961e-13 0)
(-5.37646e-05 -7.82002e-13 0)
(-5.26936e-05 -7.89167e-13 0)
(-5.14923e-05 -7.96466e-13 0)
(-5.01553e-05 -8.03852e-13 0)
(-4.8677e-05 -8.11413e-13 0)
(-4.7053e-05 -8.19076e-13 0)
(-4.5279e-05 -8.26909e-13 0)
(-4.3352e-05 -8.34908e-13 0)
(-4.12702e-05 -8.42965e-13 0)
(-3.90332e-05 -8.51098e-13 0)
(-3.66426e-05 -8.59351e-13 0)
(-3.41024e-05 -8.67726e-13 0)
(-3.14198e-05 -8.76258e-13 0)
(-2.86059e-05 -8.84914e-13 0)
(-2.5677e-05 -8.93635e-13 0)
(-2.26561e-05 -9.0245e-13 0)
(-1.95743e-05 -9.11368e-13 0)
(-1.64742e-05 -9.2042e-13 0)
(-1.34124e-05 -9.29577e-13 0)
(-1.04634e-05 -9.38851e-13 0)
(-7.72267e-06 -9.48295e-13 0)
(-5.30551e-06 -9.57739e-13 0)
(-3.33193e-06 -9.67367e-13 0)
(-1.88612e-06 -9.76979e-13 0)
(-9.60715e-07 -9.86677e-13 0)
(-4.45735e-07 -9.96689e-13 0)
(-1.91705e-07 -1.00663e-12 0)
(-7.74985e-08 -1.01671e-12 0)
(-2.96787e-08 -1.02674e-12 0)
(-1.08026e-08 -1.03682e-12 0)
(-3.74009e-09 -1.0467e-12 0)
(-1.23014e-09 -1.05739e-12 0)
(-3.93816e-10 -1.06679e-12 0)
(-1.23428e-10 -1.07683e-12 0)
(-3.78854e-11 -1.08641e-12 0)
(-1.14531e-11 -1.09575e-12 0)
(-3.5035e-12 -1.1049e-12 0)
(-1.12916e-12 -1.11387e-12 0)
(-4.65005e-13 -1.12258e-12 0)
(-2.93572e-13 -1.13114e-12 0)
(-2.39711e-13 -1.13952e-12 0)
(-2.42259e-13 -1.14761e-12 0)
(-2.31159e-13 -1.15556e-12 0)
(-2.4762e-13 -1.16324e-12 0)
(-2.40452e-13 -1.17075e-12 0)
(-2.37383e-13 -1.17813e-12 0)
(-2.25746e-13 -1.18528e-12 0)
(-2.2027e-13 -1.19224e-12 0)
(-1.88022e-13 -1.19899e-12 0)
(-1.80043e-13 -1.20554e-12 0)
(-1.47204e-13 -1.21187e-12 0)
(-1.56792e-13 -1.21805e-12 0)
(-1.5169e-13 -1.22405e-12 0)
(-9.33997e-14 -1.22977e-12 0)
(-6.51752e-14 -1.23531e-12 0)
(-1.41324e-14 -1.2407e-12 0)
(4.33026e-14 -1.24583e-12 0)
(3.77452e-14 -1.25076e-12 0)
(-2.15515e-14 -1.25552e-12 0)
(-1.22068e-13 -1.26007e-12 0)
(-1.413e-13 -1.26443e-12 0)
(-1.42486e-13 -1.26859e-12 0)
(-1.26482e-13 -1.27257e-12 0)
(-1.54092e-13 -1.27634e-12 0)
(-1.74142e-13 -1.27996e-12 0)
(-1.56043e-13 -1.28332e-12 0)
(-1.5194e-13 -1.28646e-12 0)
(-1.45736e-13 -1.28946e-12 0)
(-1.32394e-13 -1.29217e-12 0)
(-8.93265e-14 -1.2954e-12 0)
(-8.19059e-14 -1.29615e-12 0)
(-6.82311e-14 -1.30201e-12 0)
(-3.86981e-14 -1.29641e-12 0)
(-9.56827e-14 -1.31156e-12 0)
(-1.3949e-13 -1.29415e-12 0)
(-1.64389e-13 -1.31273e-12 0)
(-1.49445e-13 -1.31017e-12 0)
(-1.55471e-13 -1.3109e-12 0)
(-1.47813e-13 -1.34357e-12 0)
(-1.34805e-13 -1.19105e-12 0)
(-9.976e-14 -1.4932e-12 0)
(-8.46756e-14 -9.82215e-13 0)
)
;

boundaryField
{
    inlet
    {
        type            cyclic;
    }
    outlet
    {
        type            cyclic;
    }
    top
    {
        type            symmetryPlane;
    }
    bottom
    {
        type            calculated;
        value           uniform (0 0 0);
    }
    frontAndBackPlanes
    {
        type            empty;
    }
}


// ************************************************************************* //
