/*--------------------------------*- C++ -*----------------------------------*\
| =========                 |                                                 |
| \\      /  F ield         | OpenFOAM: The Open Source CFD Toolbox           |
|  \\    /   O peration     | Version:  2.4.0                                 |
|   \\  /    A nd           | Web:      www.OpenFOAM.org                      |
|    \\/     M anipulation  |                                                 |
\*---------------------------------------------------------------------------*/
FoamFile
{
    version     2.0;
    format      ascii;
    class       volVectorField;
    location    "250";
    object      Ua;
}
// * * * * * * * * * * * * * * * * * * * * * * * * * * * * * * * * * * * * * //

dimensions      [0 1 -1 0 0 0 0];

internalField   nonuniform List<vector> 
438
(
(2.22377e-10 -8.15264e-10 0)
(6.61516e-10 -2.44417e-09 0)
(1.09497e-09 -4.06623e-09 0)
(1.52297e-09 -5.67978e-09 0)
(1.94529e-09 -7.28573e-09 0)
(2.36232e-09 -8.88482e-09 0)
(2.7737e-09 -1.04778e-08 0)
(3.17997e-09 -1.20642e-08 0)
(3.5806e-09 -1.36433e-08 0)
(3.9763e-09 -1.52147e-08 0)
(4.36636e-09 -1.6779e-08 0)
(4.75167e-09 -1.83371e-08 0)
(5.13136e-09 -1.9887e-08 0)
(5.50648e-09 -2.14295e-08 0)
(5.87599e-09 -2.29652e-08 0)
(6.24111e-09 -2.44924e-08 0)
(6.60062e-09 -2.60116e-08 0)
(6.95592e-09 -2.75237e-08 0)
(7.30563e-09 -2.90278e-08 0)
(7.65131e-09 -3.05236e-08 0)
(7.9914e-09 -3.20114e-08 0)
(8.32763e-09 -3.34921e-08 0)
(8.65829e-09 -3.49648e-08 0)
(8.98528e-09 -3.64292e-08 0)
(9.30668e-09 -3.78844e-08 0)
(9.6246e-09 -3.93313e-08 0)
(9.93694e-09 -4.077e-08 0)
(1.0246e-08 -4.22003e-08 0)
(1.05494e-08 -4.36222e-08 0)
(1.08498e-08 -4.50356e-08 0)
(1.11445e-08 -4.64395e-08 0)
(1.14364e-08 -4.78346e-08 0)
(1.17226e-08 -4.92211e-08 0)
(1.20061e-08 -5.05987e-08 0)
(1.2284e-08 -5.19662e-08 0)
(1.25593e-08 -5.33258e-08 0)
(1.2829e-08 -5.4676e-08 0)
(1.30964e-08 -5.60169e-08 0)
(1.33581e-08 -5.73482e-08 0)
(1.36177e-08 -5.86708e-08 0)
(1.38716e-08 -5.99844e-08 0)
(1.41235e-08 -6.1289e-08 0)
(1.43698e-08 -6.25832e-08 0)
(1.46143e-08 -6.3868e-08 0)
(1.48531e-08 -6.5143e-08 0)
(1.50903e-08 -6.64083e-08 0)
(1.53218e-08 -6.76616e-08 0)
(1.55518e-08 -6.8903e-08 0)
(1.57762e-08 -7.0132e-08 0)
(1.59993e-08 -7.13496e-08 0)
(1.62167e-08 -7.25559e-08 0)
(1.6433e-08 -7.37535e-08 0)
(1.66436e-08 -7.4944e-08 0)
(1.68533e-08 -7.61306e-08 0)
(1.70573e-08 -7.73148e-08 0)
(1.72605e-08 -7.84967e-08 0)
(1.74579e-08 -7.96715e-08 0)
(1.76549e-08 -8.08328e-08 0)
(1.7846e-08 -8.197e-08 0)
(1.80368e-08 -8.30759e-08 0)
(1.82217e-08 -8.41418e-08 0)
(1.84066e-08 -8.51651e-08 0)
(1.85854e-08 -8.61433e-08 0)
(1.87644e-08 -8.70767e-08 0)
(1.89374e-08 -8.7964e-08 0)
(1.91107e-08 -8.88063e-08 0)
(1.9278e-08 -8.96023e-08 0)
(1.94458e-08 -9.0353e-08 0)
(1.96074e-08 -9.10578e-08 0)
(1.97698e-08 -9.1718e-08 0)
(1.9926e-08 -9.23311e-08 0)
(2.00831e-08 -9.28987e-08 0)
(2.0234e-08 -9.34189e-08 0)
(2.0386e-08 -9.38942e-08 0)
(2.05317e-08 -9.43226e-08 0)
(2.06788e-08 -9.47049e-08 0)
(2.08194e-08 -9.50402e-08 0)
(2.09617e-08 -9.533e-08 0)
(2.10974e-08 -9.55717e-08 0)
(2.12349e-08 -9.5767e-08 0)
(2.13658e-08 -9.59146e-08 0)
(2.14988e-08 -9.60164e-08 0)
(2.16251e-08 -9.60695e-08 0)
(2.17536e-08 -9.60765e-08 0)
(2.18753e-08 -9.60353e-08 0)
(2.19995e-08 -9.59478e-08 0)
(2.21168e-08 -9.58119e-08 0)
(2.22367e-08 -9.56287e-08 0)
(2.23497e-08 -9.53968e-08 0)
(2.24656e-08 -9.51182e-08 0)
(2.25744e-08 -9.47906e-08 0)
(2.26863e-08 -9.44161e-08 0)
(2.2791e-08 -9.39923e-08 0)
(2.2899e-08 -9.35221e-08 0)
(2.29998e-08 -9.30023e-08 0)
(2.3104e-08 -9.24352e-08 0)
(2.32009e-08 -9.1819e-08 0)
(2.33015e-08 -9.11553e-08 0)
(2.33946e-08 -9.04421e-08 0)
(2.34917e-08 -8.96819e-08 0)
(2.35811e-08 -8.88713e-08 0)
(2.36747e-08 -8.80141e-08 0)
(2.37606e-08 -8.71081e-08 0)
(2.38508e-08 -8.61558e-08 0)
(2.39332e-08 -8.51543e-08 0)
(2.40201e-08 -8.41063e-08 0)
(2.40991e-08 -8.301e-08 0)
(2.41829e-08 -8.18692e-08 0)
(2.42586e-08 -8.06815e-08 0)
(2.43392e-08 -7.94507e-08 0)
(2.44117e-08 -7.81752e-08 0)
(2.44893e-08 -7.68601e-08 0)
(2.45586e-08 -7.55044e-08 0)
(2.46333e-08 -7.41137e-08 0)
(2.46996e-08 -7.26893e-08 0)
(2.47714e-08 -7.12382e-08 0)
(2.48346e-08 -6.97632e-08 0)
(2.49036e-08 -6.82742e-08 0)
(2.4964e-08 -6.67777e-08 0)
(2.50302e-08 -6.52884e-08 0)
(2.50877e-08 -6.3816e-08 0)
(2.51513e-08 -6.23802e-08 0)
(2.5206e-08 -6.09976e-08 0)
(2.5267e-08 -5.9696e-08 0)
(2.53189e-08 -5.85013e-08 0)
(2.53773e-08 -5.74495e-08 0)
(2.54266e-08 -5.65743e-08 0)
(2.54825e-08 -5.59158e-08 0)
(2.55292e-08 -5.55036e-08 0)
(2.55826e-08 -5.53665e-08 0)
(2.56267e-08 -5.55169e-08 0)
(2.56777e-08 -5.58901e-08 0)
(2.57193e-08 -5.62989e-08 0)
(2.5768e-08 -5.662e-08 0)
(2.58071e-08 -5.68707e-08 0)
(2.58534e-08 -5.71119e-08 0)
(2.58901e-08 -5.7348e-08 0)
(2.59341e-08 -5.75655e-08 0)
(2.59684e-08 -5.7759e-08 0)
(2.60101e-08 -5.79354e-08 0)
(2.60421e-08 -5.80918e-08 0)
(2.60816e-08 -5.82303e-08 0)
(2.61112e-08 -5.8347e-08 0)
(2.61484e-08 -5.84468e-08 0)
(2.61758e-08 -5.85298e-08 0)
(2.62108e-08 -5.85985e-08 0)
(2.62359e-08 -5.86421e-08 0)
(2.62687e-08 -5.86682e-08 0)
(2.62948e-08 -5.86946e-08 0)
(2.63622e-08 -5.87324e-08 0)
(0.0135376 2.50311e-05 0)
(0.0806121 -0.000497514 0)
(0.0986439 0.00071605 0)
(0.102795 -0.00400817 0)
(0.103582 0.0100962 0)
(0.10309 -0.00743459 0)
(0.102329 0.0229031 0)
(0.0981447 -0.0203078 0)
(0.0959868 -0.0648391 0)
(0.0926675 -0.0685235 0)
(0.0893811 -0.0675309 0)
(0.0863151 -0.0680138 0)
(0.0829326 -0.0678236 0)
(0.079662 -0.0679433 0)
(0.0761801 -0.0679212 0)
(0.0727742 -0.0679644 0)
(0.069265 -0.0679781 0)
(0.0657896 -0.0680044 0)
(0.0622848 -0.0680251 0)
(0.0587985 -0.0680472 0)
(0.0553212 -0.0680683 0)
(0.0518669 -0.0680887 0)
(0.0484412 -0.0681087 0)
(0.0450497 -0.0681277 0)
(0.0416999 -0.0681462 0)
(0.0383966 -0.0681638 0)
(0.0351464 -0.0681806 0)
(0.0319545 -0.0681965 0)
(0.028827 -0.0682116 0)
(0.0257697 -0.0682257 0)
(0.0227885 -0.0682388 0)
(0.0198896 -0.0682508 0)
(0.0170794 -0.0682618 0)
(0.0143644 -0.0682716 0)
(0.0117514 -0.0682802 0)
(0.00924724 -0.0682874 0)
(0.00685913 -0.0682933 0)
(0.00459414 -0.0682978 0)
(0.0024593 -0.0683007 0)
(0.000461376 -0.0683021 0)
(-0.00139338 -0.0683019 0)
(-0.00309951 -0.0683001 0)
(-0.00465267 -0.0682968 0)
(-0.00604999 -0.0682921 0)
(-0.0072904 -0.0682862 0)
(-0.00837494 -0.0682792 0)
(-0.00930693 -0.0682716 0)
(-0.010092 -0.0682635 0)
(-0.0107379 -0.0682553 0)
(-0.0112543 -0.0682472 0)
(-0.0116521 -0.0682396 0)
(-0.0119434 -0.0682325 0)
(-0.0121381 -0.0682262 0)
(-0.0122345 -0.0682214 0)
(-0.012269 -0.068218 0)
(-0.0122576 -0.0682119 0)
(-0.012172 -0.0682096 0)
(-0.0120471 -0.0682065 0)
(-0.0118815 -0.0682045 0)
(-0.0116829 -0.0682027 0)
(-0.0114571 -0.0682013 0)
(-0.0112083 -0.0682003 0)
(-0.0109409 -0.0681994 0)
(-0.0106584 -0.0681988 0)
(-0.0103643 -0.0681983 0)
(-0.0100614 -0.0681979 0)
(-0.00975234 -0.0681976 0)
(-0.00943958 -0.0681973 0)
(-0.00912523 -0.0681971 0)
(-0.00881128 -0.0681969 0)
(-0.00849951 -0.0681967 0)
(-0.00819153 -0.0681964 0)
(-0.00788882 -0.0681961 0)
(-0.00759271 -0.0681958 0)
(-0.00730439 -0.0681955 0)
(-0.00702494 -0.0681951 0)
(-0.00675528 -0.0681947 0)
(-0.00649626 -0.0681942 0)
(-0.00624858 -0.0681937 0)
(-0.00601283 -0.0681931 0)
(-0.0057895 -0.0681925 0)
(-0.00557897 -0.0681918 0)
(-0.00538149 -0.0681911 0)
(-0.00519724 -0.0681904 0)
(-0.00502628 -0.0681897 0)
(-0.00486858 -0.0681889 0)
(-0.00472402 -0.0681881 0)
(-0.00459237 -0.0681874 0)
(-0.00447336 -0.0681866 0)
(-0.00436662 -0.0681858 0)
(-0.0042717 -0.068185 0)
(-0.00418814 -0.0681843 0)
(-0.00411538 -0.0681836 0)
(-0.00405285 -0.0681828 0)
(-0.00399993 -0.0681822 0)
(-0.00395599 -0.0681815 0)
(-0.00392037 -0.0681809 0)
(-0.00389239 -0.0681803 0)
(-0.00387138 -0.0681797 0)
(-0.00385665 -0.0681792 0)
(-0.00384884 -0.0681787 0)
(-0.00384558 -0.0681783 0)
(-0.00384513 -0.068178 0)
(-0.00385051 -0.0681775 0)
(-0.00385834 -0.0681772 0)
(-0.00386954 -0.0681768 0)
(-0.00388291 -0.0681765 0)
(-0.00389832 -0.0681763 0)
(-0.00391523 -0.068176 0)
(-0.0039333 -0.0681758 0)
(-0.00395218 -0.0681756 0)
(-0.00397156 -0.0681754 0)
(-0.00399116 -0.0681752 0)
(-0.00401072 -0.068175 0)
(-0.00403005 -0.0681749 0)
(-0.00404895 -0.0681748 0)
(-0.00406727 -0.0681746 0)
(-0.00408488 -0.0681745 0)
(-0.00410166 -0.0681744 0)
(-0.00411754 -0.0681743 0)
(-0.00413246 -0.0681742 0)
(-0.00414636 -0.0681742 0)
(-0.00415924 -0.0681741 0)
(-0.00417107 -0.068174 0)
(-0.00418187 -0.0681739 0)
(-0.00419164 -0.0681739 0)
(-0.00420041 -0.0681738 0)
(-0.00420823 -0.0681737 0)
(-0.00421513 -0.0681737 0)
(-0.00422116 -0.0681736 0)
(-0.00422637 -0.0681736 0)
(-0.00423082 -0.0681735 0)
(-0.00423456 -0.0681734 0)
(-0.00423766 -0.0681734 0)
(-0.00424018 -0.0681733 0)
(-0.00424216 -0.0681733 0)
(-0.00424368 -0.0681732 0)
(-0.00424478 -0.0681732 0)
(-0.00424552 -0.0681731 0)
(-0.00424589 -0.0681731 0)
(-0.00424602 -0.0681731 0)
(-0.00424602 -0.068173 0)
(-0.00424573 -0.0681729 0)
(-0.00424535 -0.0681729 0)
(-0.00424483 -0.0681729 0)
(-0.00424424 -0.0681728 0)
(-0.00424359 -0.0681728 0)
(-0.00424291 -0.0681727 0)
(-0.00424223 -0.0681727 0)
(-0.00424154 -0.0681726 0)
(-0.00424088 -0.0681726 0)
(-0.00424023 -0.0681726 0)
(-0.00423962 -0.0681725 0)
(-0.00423906 -0.0681725 0)
(-0.00423854 -0.0681724 0)
(-0.0042381 -0.0681724 0)
(-0.00423772 -0.0681724 0)
(-0.00423742 -0.0681723 0)
(-0.0042372 -0.0681723 0)
(-0.00423708 -0.0681723 0)
(-0.00423704 -0.0681722 0)
(-0.00423706 -0.0681722 0)
(-0.00423719 -0.0681722 0)
(-0.00423738 -0.0681721 0)
(-0.00423765 -0.0681721 0)
(-0.00423799 -0.0681721 0)
(-0.00423838 -0.068172 0)
(-0.00423882 -0.068172 0)
(-0.0042393 -0.068172 0)
(-0.00423982 -0.068172 0)
(-0.00424036 -0.0681719 0)
(-0.00424091 -0.0681719 0)
(-0.00424147 -0.0681719 0)
(-0.00424203 -0.0681719 0)
(-0.00424258 -0.0681718 0)
(-0.00424313 -0.0681718 0)
(-0.00424366 -0.0681718 0)
(-0.00424418 -0.0681718 0)
(-0.00424468 -0.0681718 0)
(-0.00424516 -0.0681717 0)
(-0.00424562 -0.0681717 0)
(-0.00424607 -0.0681717 0)
(-0.00424649 -0.0681717 0)
(-0.00424689 -0.0681717 0)
(-0.00424727 -0.0681716 0)
(-0.00424763 -0.0681716 0)
(-0.00424796 -0.0681716 0)
(-0.00424827 -0.0681716 0)
(-0.00424856 -0.0681716 0)
(-0.00424881 -0.0681716 0)
(-0.00424903 -0.0681716 0)
(-0.00424921 -0.0681716 0)
(-0.00424936 -0.0681715 0)
(-0.00424945 -0.0681715 0)
(-0.00424948 -0.0681715 0)
(-0.00424948 -0.0681715 0)
(-0.00424941 -0.0681715 0)
(-0.00424927 -0.0681715 0)
(-0.00424906 -0.0681715 0)
(-0.00424878 -0.0681715 0)
(-0.00424841 -0.0681715 0)
(-0.00424796 -0.0681715 0)
(-0.00424741 -0.0681715 0)
(-0.00424676 -0.0681715 0)
(-0.00424601 -0.0681714 0)
(-0.00424514 -0.0681714 0)
(-0.00424415 -0.0681714 0)
(-0.00424304 -0.0681714 0)
(-0.0042418 -0.0681714 0)
(-0.00424042 -0.0681714 0)
(-0.00423891 -0.0681714 0)
(-0.00423724 -0.0681714 0)
(-0.00423543 -0.0681714 0)
(-0.00423347 -0.0681714 0)
(-0.00423136 -0.0681714 0)
(-0.00422909 -0.0681714 0)
(-0.00422667 -0.0681714 0)
(-0.0042241 -0.0681714 0)
(-0.0042214 -0.0681714 0)
(-0.00421857 -0.0681714 0)
(-0.00421563 -0.0681714 0)
(-0.00421261 -0.0681714 0)
(-0.00420955 -0.0681714 0)
(-0.00420647 -0.0681714 0)
(-0.00420345 -0.0681714 0)
(-0.00420057 -0.0681714 0)
(-0.00419791 -0.0681714 0)
(-0.00419561 -0.0681714 0)
(-0.00419376 -0.0681714 0)
(-0.00419244 -0.0681714 0)
(-0.00419162 -0.0681714 0)
(-0.00419117 -0.0681714 0)
(-0.00419096 -0.0681714 0)
(-0.00419087 -0.0681714 0)
(-0.00419083 -0.0681714 0)
(-0.00419081 -0.0681714 0)
(-0.0041908 -0.0681714 0)
(-0.0041908 -0.0681714 0)
(-0.0041908 -0.0681714 0)
(-0.0041908 -0.0681714 0)
(-0.0041908 -0.0681714 0)
(-0.0041908 -0.0681714 0)
(-0.0041908 -0.0681714 0)
(-0.0041908 -0.0681714 0)
(-0.0041908 -0.0681714 0)
(-0.0041908 -0.0681714 0)
(-0.0041908 -0.0681714 0)
(-0.0041908 -0.0681714 0)
(-0.0041908 -0.0681714 0)
(-0.0041908 -0.0681714 0)
(-0.0041908 -0.0681714 0)
(-0.0041908 -0.0681714 0)
(-0.0041908 -0.0681714 0)
(-0.0041908 -0.0681714 0)
(-0.0041908 -0.0681714 0)
(-0.0041908 -0.0681714 0)
(-0.0041908 -0.0681714 0)
(-0.0041908 -0.0681714 0)
(-0.0041908 -0.0681714 0)
(-0.0041908 -0.0681714 0)
(-0.0041908 -0.0681714 0)
(-0.0041908 -0.0681714 0)
(-0.0041908 -0.0681714 0)
(-0.0041908 -0.0681714 0)
(-0.0041908 -0.0681714 0)
(-0.0041908 -0.0681714 0)
(-0.0041908 -0.0681714 0)
(-0.0041908 -0.0681714 0)
(-0.0041908 -0.0681714 0)
(-0.0041908 -0.0681714 0)
(-0.0041908 -0.0681714 0)
(-0.0041908 -0.0681714 0)
(-0.0041908 -0.0681714 0)
(-0.0041908 -0.0681714 0)
(-0.0041908 -0.0681714 0)
(-0.0041908 -0.0681714 0)
(-0.0041908 -0.0681714 0)
(-0.0041908 -0.0681714 0)
(-0.0041908 -0.0681714 0)
(-0.0041908 -0.0681714 0)
(-0.0041908 -0.0681714 0)
(-0.0041908 -0.0681714 0)
(-0.00419082 -0.0681713 0)
(-0.00419096 -0.0681709 0)
(-0.00419236 -0.0681641 0)
(-0.00420542 -0.0680634 0)
(-0.00431872 -0.0665412 0)
(-0.00525909 -0.0393833 0)
)
;

boundaryField
{
    inlet
    {
        type            cyclic;
    }
    outlet
    {
        type            cyclic;
    }
    top
    {
        type            symmetryPlane;
    }
    bottom
    {
        type            fixedValue;
        value           uniform (0 0 0);
    }
    frontAndBackPlanes
    {
        type            empty;
    }
}


// ************************************************************************* //
