/*--------------------------------*- C++ -*----------------------------------*\
| =========                 |                                                 |
| \\      /  F ield         | OpenFOAM: The Open Source CFD Toolbox           |
|  \\    /   O peration     | Version:  2.4.0                                 |
|   \\  /    A nd           | Web:      www.OpenFOAM.org                      |
|    \\/     M anipulation  |                                                 |
\*---------------------------------------------------------------------------*/
FoamFile
{
    version     2.0;
    format      ascii;
    class       volVectorField;
    location    "250";
    object      Ub;
}
// * * * * * * * * * * * * * * * * * * * * * * * * * * * * * * * * * * * * * //

dimensions      [0 1 -1 0 0 0 0];

internalField   nonuniform List<vector> 
438
(
(0.000310627 1.28627e-09 0)
(0.000311974 3.85688e-09 0)
(0.000312041 6.41647e-09 0)
(0.000312107 8.96259e-09 0)
(0.000312173 1.14967e-08 0)
(0.000312242 1.40192e-08 0)
(0.000312311 1.65316e-08 0)
(0.000312379 1.90326e-08 0)
(0.000312448 2.1522e-08 0)
(0.000312517 2.39984e-08 0)
(0.000312589 2.64629e-08 0)
(0.00031266 2.89178e-08 0)
(0.000312729 3.13583e-08 0)
(0.000312803 3.37867e-08 0)
(0.000312875 3.62045e-08 0)
(0.000312946 3.86075e-08 0)
(0.00031302 4.09977e-08 0)
(0.000313095 4.3376e-08 0)
(0.000313169 4.57414e-08 0)
(0.000313243 4.80926e-08 0)
(0.00031332 5.0431e-08 0)
(0.000313397 5.27574e-08 0)
(0.000313474 5.50705e-08 0)
(0.00031355 5.737e-08 0)
(0.000313627 5.96544e-08 0)
(0.000313707 6.1925e-08 0)
(0.000313787 6.41826e-08 0)
(0.000313866 6.64253e-08 0)
(0.000313948 6.86552e-08 0)
(0.000314028 7.08703e-08 0)
(0.00031411 7.30704e-08 0)
(0.000314193 7.52554e-08 0)
(0.000314277 7.74269e-08 0)
(0.00031436 7.95832e-08 0)
(0.000314445 8.1723e-08 0)
(0.000314532 8.385e-08 0)
(0.000314617 8.59613e-08 0)
(0.000314705 8.80572e-08 0)
(0.000314793 9.01376e-08 0)
(0.000314883 9.22032e-08 0)
(0.000314974 9.42544e-08 0)
(0.000315064 9.62903e-08 0)
(0.000315154 9.83094e-08 0)
(0.000315247 1.00313e-07 0)
(0.000315341 1.02301e-07 0)
(0.000315434 1.04272e-07 0)
(0.000315524 1.06224e-07 0)
(0.000315617 1.08157e-07 0)
(0.000315711 1.1007e-07 0)
(0.000315807 1.11965e-07 0)
(0.000315905 1.13841e-07 0)
(0.000316009 1.15701e-07 0)
(0.000316118 1.1755e-07 0)
(0.000316233 1.19389e-07 0)
(0.000316352 1.21225e-07 0)
(0.000316467 1.23054e-07 0)
(0.000316576 1.24874e-07 0)
(0.000316667 1.26672e-07 0)
(0.000316745 1.28436e-07 0)
(0.000316807 1.30153e-07 0)
(0.000316858 1.31809e-07 0)
(0.000316907 1.33401e-07 0)
(0.000316953 1.34923e-07 0)
(0.000316999 1.36375e-07 0)
(0.000317046 1.37755e-07 0)
(0.000317092 1.39064e-07 0)
(0.000317138 1.40301e-07 0)
(0.000317184 1.41465e-07 0)
(0.000317233 1.42559e-07 0)
(0.000317279 1.43581e-07 0)
(0.000317325 1.44531e-07 0)
(0.000317371 1.45409e-07 0)
(0.000317418 1.46213e-07 0)
(0.000317467 1.46945e-07 0)
(0.000317513 1.47606e-07 0)
(0.000317559 1.48192e-07 0)
(0.000317608 1.48707e-07 0)
(0.000317654 1.49148e-07 0)
(0.0003177 1.49516e-07 0)
(0.000317747 1.4981e-07 0)
(0.000317795 1.50031e-07 0)
(0.000317842 1.50178e-07 0)
(0.000317888 1.5025e-07 0)
(0.000317937 1.5025e-07 0)
(0.000317983 1.50174e-07 0)
(0.000318032 1.50026e-07 0)
(0.000318078 1.49803e-07 0)
(0.000318125 1.49504e-07 0)
(0.000318174 1.49132e-07 0)
(0.00031822 1.48684e-07 0)
(0.000318269 1.48162e-07 0)
(0.000318315 1.47564e-07 0)
(0.000318364 1.46891e-07 0)
(0.000318413 1.46145e-07 0)
(0.00031846 1.45322e-07 0)
(0.000318508 1.44424e-07 0)
(0.000318557 1.43452e-07 0)
(0.000318604 1.42402e-07 0)
(0.000318655 1.41279e-07 0)
(0.000318702 1.40079e-07 0)
(0.000318751 1.38803e-07 0)
(0.000318803 1.37452e-07 0)
(0.000318854 1.36027e-07 0)
(0.000318906 1.34528e-07 0)
(0.000318958 1.32954e-07 0)
(0.000319009 1.31305e-07 0)
(0.000319066 1.29584e-07 0)
(0.000319123 1.27791e-07 0)
(0.000319183 1.25926e-07 0)
(0.000319246 1.23992e-07 0)
(0.000319313 1.2199e-07 0)
(0.000319386 1.19924e-07 0)
(0.000319465 1.17795e-07 0)
(0.000319554 1.15609e-07 0)
(0.000319654 1.13372e-07 0)
(0.000319767 1.1109e-07 0)
(0.000319899 1.08771e-07 0)
(0.000320052 1.06424e-07 0)
(0.00032024 1.04067e-07 0)
(0.000320463 1.01713e-07 0)
(0.000320734 9.93839e-08 0)
(0.000321067 9.71025e-08 0)
(0.000321481 9.48977e-08 0)
(0.000322003 9.28048e-08 0)
(0.000322665 9.08644e-08 0)
(0.000323513 8.91208e-08 0)
(0.000324609 8.76234e-08 0)
(0.000326025 8.64163e-08 0)
(0.000327868 8.55329e-08 0)
(0.000330294 8.49756e-08 0)
(0.000333511 8.49004e-08 0)
(0.000336059 8.52779e-08 0)
(0.000336173 8.5679e-08 0)
(0.000335767 8.60668e-08 0)
(0.000336251 8.64173e-08 0)
(0.000337325 8.67286e-08 0)
(0.000338193 8.69677e-08 0)
(0.000338971 8.7172e-08 0)
(0.000339882 8.7349e-08 0)
(0.00034092 8.74853e-08 0)
(0.000342044 8.75779e-08 0)
(0.00034326 8.76238e-08 0)
(0.000344632 8.76146e-08 0)
(0.000346288 8.75435e-08 0)
(0.000348355 8.87902e-08 0)
(0.000350611 6.41531e-08 0)
(0.000352948 1.93885e-07 0)
(0.000357211 -2.22279e-07 0)
(0.000366815 1.05824e-06 0)
(0.000547123 -2.97205e-06 0)
(0.0418131 3.2144e-06 0)
(0.0931851 1.05784e-05 0)
(0.104726 -5.91499e-06 0)
(0.108095 3.66801e-06 0)
(0.108818 -2.04929e-06 0)
(0.108289 8.63684e-07 0)
(0.107 -4.22582e-07 0)
(0.105186 1.73274e-07 0)
(0.102982 -5.99797e-08 0)
(0.100477 2.28327e-08 0)
(0.0977384 -8.52849e-09 0)
(0.0948151 3.08613e-09 0)
(0.0917466 -1.08632e-09 0)
(0.0885644 3.7224e-10 0)
(0.0852941 -1.2483e-10 0)
(0.0819568 4.05874e-11 0)
(0.0785703 -1.33258e-11 0)
(0.0751493 4.0123e-12 0)
(0.0717067 -1.70572e-12 0)
(0.0682536 9.18447e-15 0)
(0.0647995 -1.54263e-13 0)
(0.0613531 -2.12434e-13 0)
(0.0579222 -2.23453e-13 0)
(0.0545138 -2.24393e-13 0)
(0.0511347 -2.25892e-13 0)
(0.0477909 -2.28273e-13 0)
(0.0444885 -2.30653e-13 0)
(0.0412333 -2.33373e-13 0)
(0.0380309 -2.35958e-13 0)
(0.034887 -2.38361e-13 0)
(0.0318073 -2.41051e-13 0)
(0.0287975 -2.43534e-13 0)
(0.0258638 -2.46079e-13 0)
(0.0230121 -2.49186e-13 0)
(0.0202489 -2.51958e-13 0)
(0.0175807 -2.54513e-13 0)
(0.0150144 -2.57167e-13 0)
(0.012557 -2.59554e-13 0)
(0.0102159 -2.61629e-13 0)
(0.00799831 -2.62737e-13 0)
(0.00591152 -2.63983e-13 0)
(0.00396258 -2.66091e-13 0)
(0.002158 -2.68463e-13 0)
(0.000503478 -2.7109e-13 0)
(-0.000996521 -2.74178e-13 0)
(-0.00233917 -2.77846e-13 0)
(-0.00352367 -2.81155e-13 0)
(-0.00455159 -2.83014e-13 0)
(-0.00542702 -2.83674e-13 0)
(-0.00615653 -2.85084e-13 0)
(-0.0067489 -2.87441e-13 0)
(-0.00721466 -2.90079e-13 0)
(-0.00756547 -2.92194e-13 0)
(-0.00781349 -2.94264e-13 0)
(-0.00797079 -2.9931e-13 0)
(-0.00804888 -3.05472e-13 0)
(-0.00805842 -3.08932e-13 0)
(-0.00800903 -3.11223e-13 0)
(-0.00790928 -3.13861e-13 0)
(-0.00776671 -3.16552e-13 0)
(-0.0075879 -3.1931e-13 0)
(-0.00737863 -3.21987e-13 0)
(-0.00714393 -3.24452e-13 0)
(-0.00688823 -3.26724e-13 0)
(-0.00661546 -3.29176e-13 0)
(-0.00632908 -3.31903e-13 0)
(-0.00603221 -3.34705e-13 0)
(-0.00572764 -3.37362e-13 0)
(-0.0054179 -3.3977e-13 0)
(-0.00510527 -3.42052e-13 0)
(-0.00479183 -3.44508e-13 0)
(-0.00447946 -3.46992e-13 0)
(-0.00416988 -3.49468e-13 0)
(-0.00386465 -3.52291e-13 0)
(-0.00356519 -3.55281e-13 0)
(-0.00327276 -3.57714e-13 0)
(-0.00298853 -3.59796e-13 0)
(-0.00271351 -3.62227e-13 0)
(-0.0024486 -3.64886e-13 0)
(-0.00219459 -3.67404e-13 0)
(-0.00195214 -3.6952e-13 0)
(-0.00172181 -3.71633e-13 0)
(-0.00150404 -3.73347e-13 0)
(-0.00129918 -3.73931e-13 0)
(-0.00110745 -3.74581e-13 0)
(-0.000928976 -3.7648e-13 0)
(-0.000763792 -3.78908e-13 0)
(-0.000611827 -3.80939e-13 0)
(-0.000472922 -3.82951e-13 0)
(-0.000346835 -3.85163e-13 0)
(-0.000233242 -3.87646e-13 0)
(-0.000131751 -3.90556e-13 0)
(-4.19035e-05 -3.93388e-13 0)
(3.6811e-05 -3.95826e-13 0)
(0.000104951 -3.98292e-13 0)
(0.000163112 -4.00917e-13 0)
(0.000211918 -4.03579e-13 0)
(0.000252014 -4.06042e-13 0)
(0.000284055 -4.08467e-13 0)
(0.000308702 -4.11187e-13 0)
(0.000326611 -4.142e-13 0)
(0.000338432 -4.17091e-13 0)
(0.000344796 -4.19737e-13 0)
(0.000346318 -4.22109e-13 0)
(0.000343587 -4.24521e-13 0)
(0.000337165 -4.27044e-13 0)
(0.000327587 -4.29762e-13 0)
(0.000315352 -4.32663e-13 0)
(0.000300929 -4.35459e-13 0)
(0.000284751 -4.38432e-13 0)
(0.000267219 -4.41108e-13 0)
(0.000248696 -4.43606e-13 0)
(0.000229513 -4.46062e-13 0)
(0.000209966 -4.48175e-13 0)
(0.000190319 -4.50415e-13 0)
(0.000170805 -4.53165e-13 0)
(0.000151624 -4.55709e-13 0)
(0.000132949 -4.58011e-13 0)
(0.000114925 -4.60886e-13 0)
(9.76715e-05 -4.63535e-13 0)
(8.12832e-05 -4.65969e-13 0)
(6.58332e-05 -4.68454e-13 0)
(5.13742e-05 -4.70831e-13 0)
(3.79402e-05 -4.73536e-13 0)
(2.55488e-05 -4.76162e-13 0)
(1.42028e-05 -4.78794e-13 0)
(3.89189e-06 -4.81238e-13 0)
(-5.40528e-06 -4.83535e-13 0)
(-1.37198e-05 -4.85684e-13 0)
(-2.10906e-05 -4.87525e-13 0)
(-2.75632e-05 -4.90193e-13 0)
(-3.31881e-05 -4.92778e-13 0)
(-3.80197e-05 -4.94816e-13 0)
(-4.21151e-05 -4.97034e-13 0)
(-4.55327e-05 -4.99563e-13 0)
(-4.83317e-05 -5.02215e-13 0)
(-5.05711e-05 -5.04195e-13 0)
(-5.23087e-05 -5.06068e-13 0)
(-5.36011e-05 -5.08246e-13 0)
(-5.45024e-05 -5.10482e-13 0)
(-5.50644e-05 -5.13075e-13 0)
(-5.53358e-05 -5.15483e-13 0)
(-5.53625e-05 -5.17589e-13 0)
(-5.51867e-05 -5.19867e-13 0)
(-5.48473e-05 -5.2229e-13 0)
(-5.43799e-05 -5.24866e-13 0)
(-5.38163e-05 -5.27211e-13 0)
(-5.31851e-05 -5.2963e-13 0)
(-5.25113e-05 -5.33826e-13 0)
(-5.18169e-05 -5.42221e-13 0)
(-5.11177e-05 -5.4661e-13 0)
(-5.04222e-05 -5.39862e-13 0)
(-4.97406e-05 -5.39507e-13 0)
(-4.9088e-05 -5.42147e-13 0)
(-4.84782e-05 -5.44715e-13 0)
(-4.79235e-05 -5.47474e-13 0)
(-4.74347e-05 -5.49939e-13 0)
(-4.7021e-05 -5.52272e-13 0)
(-4.66893e-05 -5.54525e-13 0)
(-4.64447e-05 -5.56946e-13 0)
(-4.62903e-05 -5.59894e-13 0)
(-4.62271e-05 -5.6295e-13 0)
(-4.6254e-05 -5.66092e-13 0)
(-4.63682e-05 -5.6918e-13 0)
(-4.65648e-05 -5.72424e-13 0)
(-4.68379e-05 -5.75719e-13 0)
(-4.71798e-05 -5.78868e-13 0)
(-4.75823e-05 -5.81926e-13 0)
(-4.80361e-05 -5.85161e-13 0)
(-4.85318e-05 -5.88643e-13 0)
(-4.90599e-05 -5.92282e-13 0)
(-4.96113e-05 -5.96093e-13 0)
(-5.01772e-05 -5.99863e-13 0)
(-5.07497e-05 -6.03665e-13 0)
(-5.1322e-05 -6.07778e-13 0)
(-5.1888e-05 -6.11864e-13 0)
(-5.24431e-05 -6.15802e-13 0)
(-5.29837e-05 -6.19858e-13 0)
(-5.3507e-05 -6.24032e-13 0)
(-5.40113e-05 -6.28511e-13 0)
(-5.44957e-05 -6.33027e-13 0)
(-5.49595e-05 -6.37656e-13 0)
(-5.54026e-05 -6.42461e-13 0)
(-5.58247e-05 -6.47013e-13 0)
(-5.62255e-05 -6.51712e-13 0)
(-5.66044e-05 -6.5673e-13 0)
(-5.69605e-05 -6.61818e-13 0)
(-5.7292e-05 -6.66774e-13 0)
(-5.75969e-05 -6.71774e-13 0)
(-5.78725e-05 -6.7707e-13 0)
(-5.81156e-05 -6.8234e-13 0)
(-5.83226e-05 -6.87519e-13 0)
(-5.84893e-05 -6.92988e-13 0)
(-5.86114e-05 -6.98636e-13 0)
(-5.86842e-05 -7.04329e-13 0)
(-5.87029e-05 -7.10094e-13 0)
(-5.86622e-05 -7.15958e-13 0)
(-5.85571e-05 -7.22032e-13 0)
(-5.8382e-05 -7.28232e-13 0)
(-5.81315e-05 -7.34492e-13 0)
(-5.77997e-05 -7.40954e-13 0)
(-5.73807e-05 -7.47529e-13 0)
(-5.68686e-05 -7.54245e-13 0)
(-5.62572e-05 -7.61112e-13 0)
(-5.55402e-05 -7.67981e-13 0)
(-5.47114e-05 -7.74961e-13 0)
(-5.37646e-05 -7.82002e-13 0)
(-5.26936e-05 -7.89167e-13 0)
(-5.14923e-05 -7.96466e-13 0)
(-5.01553e-05 -8.03852e-13 0)
(-4.8677e-05 -8.11413e-13 0)
(-4.7053e-05 -8.19076e-13 0)
(-4.5279e-05 -8.26909e-13 0)
(-4.3352e-05 -8.34908e-13 0)
(-4.12702e-05 -8.42965e-13 0)
(-3.90332e-05 -8.51098e-13 0)
(-3.66426e-05 -8.59351e-13 0)
(-3.41024e-05 -8.67726e-13 0)
(-3.14198e-05 -8.76258e-13 0)
(-2.86059e-05 -8.84914e-13 0)
(-2.5677e-05 -8.93635e-13 0)
(-2.26561e-05 -9.0245e-13 0)
(-1.95743e-05 -9.11368e-13 0)
(-1.64742e-05 -9.2042e-13 0)
(-1.34124e-05 -9.29577e-13 0)
(-1.04634e-05 -9.38851e-13 0)
(-7.72267e-06 -9.48295e-13 0)
(-5.30551e-06 -9.57739e-13 0)
(-3.33193e-06 -9.67367e-13 0)
(-1.88612e-06 -9.76979e-13 0)
(-9.60715e-07 -9.86677e-13 0)
(-4.45735e-07 -9.96689e-13 0)
(-1.91705e-07 -1.00663e-12 0)
(-7.74985e-08 -1.01671e-12 0)
(-2.96787e-08 -1.02674e-12 0)
(-1.08026e-08 -1.03682e-12 0)
(-3.74009e-09 -1.0467e-12 0)
(-1.23014e-09 -1.05739e-12 0)
(-3.93816e-10 -1.06679e-12 0)
(-1.23428e-10 -1.07683e-12 0)
(-3.78854e-11 -1.08641e-12 0)
(-1.14531e-11 -1.09575e-12 0)
(-3.5035e-12 -1.1049e-12 0)
(-1.12916e-12 -1.11387e-12 0)
(-4.65005e-13 -1.12258e-12 0)
(-2.93572e-13 -1.13114e-12 0)
(-2.39711e-13 -1.13952e-12 0)
(-2.42259e-13 -1.14761e-12 0)
(-2.31159e-13 -1.15556e-12 0)
(-2.4762e-13 -1.16324e-12 0)
(-2.40452e-13 -1.17075e-12 0)
(-2.37383e-13 -1.17813e-12 0)
(-2.25746e-13 -1.18528e-12 0)
(-2.2027e-13 -1.19224e-12 0)
(-1.88022e-13 -1.19899e-12 0)
(-1.80043e-13 -1.20554e-12 0)
(-1.47204e-13 -1.21187e-12 0)
(-1.56792e-13 -1.21805e-12 0)
(-1.5169e-13 -1.22405e-12 0)
(-9.33997e-14 -1.22977e-12 0)
(-6.51752e-14 -1.23531e-12 0)
(-1.41324e-14 -1.2407e-12 0)
(4.33026e-14 -1.24583e-12 0)
(3.77452e-14 -1.25076e-12 0)
(-2.15515e-14 -1.25552e-12 0)
(-1.22068e-13 -1.26007e-12 0)
(-1.413e-13 -1.26443e-12 0)
(-1.42486e-13 -1.26859e-12 0)
(-1.26482e-13 -1.27257e-12 0)
(-1.54092e-13 -1.27634e-12 0)
(-1.74142e-13 -1.27996e-12 0)
(-1.56043e-13 -1.28332e-12 0)
(-1.5194e-13 -1.28646e-12 0)
(-1.45736e-13 -1.28946e-12 0)
(-1.32394e-13 -1.29217e-12 0)
(-8.93265e-14 -1.2954e-12 0)
(-8.19059e-14 -1.29615e-12 0)
(-6.82311e-14 -1.30201e-12 0)
(-3.86981e-14 -1.29641e-12 0)
(-9.56827e-14 -1.31156e-12 0)
(-1.3949e-13 -1.29415e-12 0)
(-1.64389e-13 -1.31273e-12 0)
(-1.49445e-13 -1.31017e-12 0)
(-1.55471e-13 -1.3109e-12 0)
(-1.47813e-13 -1.34357e-12 0)
(-1.34805e-13 -1.19105e-12 0)
(-9.976e-14 -1.4932e-12 0)
(-8.46756e-14 -9.82215e-13 0)
)
;

boundaryField
{
    inlet
    {
        type            cyclic;
    }
    outlet
    {
        type            cyclic;
    }
    top
    {
        type            symmetryPlane;
    }
    bottom
    {
        type            fixedValue;
        value           uniform (0 0 0);
    }
    frontAndBackPlanes
    {
        type            empty;
    }
}


// ************************************************************************* //
